   20   20   60    2
  0.1536530E+02  0.6478029E-09  0.6116162E-09  0.9862338E-09  0.5000000E-15
   1.0000000000000000E-004
  CAR 
 unknown system                          
    128     24    100

  0.1262379E-14  0.1262379E-14  0.1262379E-14  0.1666667E-01
    1      -57.271525    -51.023333   1.000000   1.000000
    2      -57.260773    -51.020043   1.000000   1.000000
    3      -57.078263    -50.984080   1.000000   1.000000
    4      -57.076548    -50.982889   1.000000   1.000000
    5      -56.885594    -50.836893   1.000000   1.000000
    6      -56.885253    -50.834612   1.000000   1.000000
    7      -55.906976    -50.689284   1.000000   1.000000
    8      -55.905839    -50.686786   1.000000   1.000000
    9      -55.654920    -50.660209   1.000000   1.000000
   10      -55.651111    -50.639607   1.000000   1.000000
   11      -55.449352    -50.634823   1.000000   1.000000
   12      -55.448652    -50.631415   1.000000   1.000000
   13      -45.461940    -45.452060   1.000000   1.000000
   14      -45.455233    -45.445521   1.000000   1.000000
   15      -45.388428    -45.382984   1.000000   1.000000
   16      -45.386773    -45.381354   1.000000   1.000000
   17      -44.656226    -44.649379   1.000000   1.000000
   18      -44.655872    -44.648997   1.000000   1.000000
   19      -44.650126    -44.643239   1.000000   1.000000
   20      -44.649638    -44.642740   1.000000   1.000000
   21      -16.888189    -16.542636   1.000000   1.000000
   22      -16.666246    -16.327409   1.000000   1.000000
   23      -10.848667    -10.635503   1.000000   1.000000
   24      -10.182715     -9.953724   1.000000   1.000000
   25      -10.020689     -9.822556   1.000000   1.000000
   26       -9.941526     -9.743450   1.000000   1.000000
   27       -9.890699     -9.666855   1.000000   1.000000
   28       -9.650847     -9.438296   1.000000   1.000000
   29       -3.709657     -2.350599   1.000000   1.000000
   30       -3.312626     -1.871953   1.000000   1.000000
   31       -2.841958     -1.437848   1.000000   1.000000
   32       -2.699545     -1.402959   1.000000   1.000000
   33       -2.621411     -1.274576   1.000000   1.000000
   34       -2.521394     -1.107975   1.000000   1.000000
   35       -2.433452     -0.924349   1.000000   1.000000
   36       -2.310414     -0.895610   1.000000   1.000000
   37       -2.237841     -0.894913   1.000000   1.000000
   38       -2.078082     -0.849065   1.000000   1.000000
   39       -2.035857     -0.527082   1.000000   1.000000
   40       -1.945711     -0.312674   1.000000   1.000000
   41       -1.896075     -0.133924   1.000000   1.000000
   42       -1.888099      0.105348   1.000000   1.000000
   43       -1.843015      0.372324   1.000000   1.000000
   44       -1.693923      0.745681   1.000000   1.000000
   45       -1.628098      0.781727   1.000000   1.000000
   46       -1.379988      0.851836   1.000000   1.000000
   47       -1.334678      1.028956   1.000000   1.000000
   48       -1.246786      1.183656   1.000000   1.000000
   49       -1.116206      1.245640   1.000000   1.000000
   50       -1.035319      1.332078   1.000000   1.000000
   51       -0.940783      1.427930   1.000000   1.000000
   52       -0.808328      1.442776   1.000000   1.000000
   53       -0.726733      2.389372   1.000000   1.000000
   54       -0.325639      2.430556   1.000000   1.000000
   55       -0.298120      2.661818   1.000000   1.000000
   56       -0.049784      2.886689   1.000000   1.000000
   57       -0.022723      5.422264   1.000000   0.000000
   58        0.430679      5.780702   1.000000   0.000000
   59        0.608669      6.003102   1.000000   0.000000
   60        0.816440      6.074572   1.000000   0.000000
   61        0.865779      6.300177   1.000000   0.000000
   62        0.935344      6.331747   1.000000   0.000000
   63        1.095009      6.716001   1.000000   0.000000
   64        1.184400      6.830135   1.000000   0.000000
   65        1.557483      6.993641   1.000000   0.000000
   66        1.567322      7.043758   1.000000   0.000000
   67        1.690764      7.317014   1.000000   0.000000
   68        2.135409      7.322124   1.000000   0.000000
   69        2.388421      7.333008   1.000000   0.000000
   70        2.650991      7.800200   1.000000   0.000000
   71        2.667109      7.905314   1.000000   0.000000
   72        2.720181      8.170874   1.000000   0.000000
   73        6.624360      8.174552   0.000000   0.000000
   74        7.245922      8.208923   0.000000   0.000000
   75        8.173251      9.026689   0.000000   0.000000
   76        8.207374      9.352259   0.000000   0.000000
   77        9.060299      9.738900   0.000000   0.000000
   78        9.122810     10.007319   0.000000   0.000000
   79        9.627037     10.247215   0.000000   0.000000
   80        9.874964     10.354157   0.000000   0.000000
   81        9.900442     10.509418   0.000000   0.000000
   82       10.293737     10.769264   0.000000   0.000000
   83       10.323171     10.873177   0.000000   0.000000
   84       10.614437     11.056484   0.000000   0.000000
   85       10.631591     11.480971   0.000000   0.000000
   86       11.268467     11.537549   0.000000   0.000000
   87       11.434772     12.155339   0.000000   0.000000
   88       11.513204     12.167791   0.000000   0.000000
   89       11.739607     12.271947   0.000000   0.000000
   90       11.787480     12.305427   0.000000   0.000000
   91       12.309535     12.744709   0.000000   0.000000
   92       12.425140     12.962325   0.000000   0.000000
   93       12.632504     12.976367   0.000000   0.000000
   94       12.696206     13.090892   0.000000   0.000000
   95       12.727192     13.206160   0.000000   0.000000
   96       13.015023     13.499089   0.000000   0.000000
   97       13.128311     13.649230   0.000000   0.000000
   98       13.477491     13.881419   0.000000   0.000000
   99       13.806828     14.097498   0.000000   0.000000
  100       13.952738     14.541317   0.000000   0.000000

  0.2500000E+00  0.1262379E-14  0.1262379E-14  0.3333333E-01
    1      -57.271526    -51.023331   1.000000   1.000000
    2      -57.260775    -51.020063   1.000000   1.000000
    3      -57.078271    -50.984088   1.000000   1.000000
    4      -57.076547    -50.982894   1.000000   1.000000
    5      -56.885596    -50.836894   1.000000   1.000000
    6      -56.885255    -50.834616   1.000000   1.000000
    7      -55.906978    -50.689284   1.000000   1.000000
    8      -55.905842    -50.686791   1.000000   1.000000
    9      -55.654919    -50.660226   1.000000   1.000000
   10      -55.651113    -50.639593   1.000000   1.000000
   11      -55.449360    -50.634841   1.000000   1.000000
   12      -55.448653    -50.631414   1.000000   1.000000
   13      -45.461932    -45.452054   1.000000   1.000000
   14      -45.455258    -45.445542   1.000000   1.000000
   15      -45.388436    -45.382978   1.000000   1.000000
   16      -45.386779    -45.381370   1.000000   1.000000
   17      -44.656210    -44.649359   1.000000   1.000000
   18      -44.655901    -44.649033   1.000000   1.000000
   19      -44.650121    -44.643234   1.000000   1.000000
   20      -44.649665    -44.642769   1.000000   1.000000
   21      -16.887941    -16.542330   1.000000   1.000000
   22      -16.665931    -16.327103   1.000000   1.000000
   23      -10.768798    -10.555341   1.000000   1.000000
   24      -10.291212    -10.075335   1.000000   1.000000
   25      -10.013469     -9.803419   1.000000   1.000000
   26       -9.930835     -9.729132   1.000000   1.000000
   27       -9.890511     -9.668369   1.000000   1.000000
   28       -9.662027     -9.453493   1.000000   1.000000
   29       -3.719183     -2.345218   1.000000   1.000000
   30       -3.297950     -1.728143   1.000000   1.000000
   31       -2.847111     -1.548913   1.000000   1.000000
   32       -2.817096     -1.403257   1.000000   1.000000
   33       -2.583629     -1.358480   1.000000   1.000000
   34       -2.533341     -1.179403   1.000000   1.000000
   35       -2.430409     -0.982673   1.000000   1.000000
   36       -2.323231     -0.885617   1.000000   1.000000
   37       -2.149262     -0.860736   1.000000   1.000000
   38       -2.077321     -0.579150   1.000000   1.000000
   39       -2.047817     -0.431628   1.000000   1.000000
   40       -1.959843     -0.194066   1.000000   1.000000
   41       -1.893842     -0.088240   1.000000   1.000000
   42       -1.875369     -0.000069   1.000000   1.000000
   43       -1.837244      0.316519   1.000000   1.000000
   44       -1.673328      0.535120   1.000000   1.000000
   45       -1.622607      0.779377   1.000000   1.000000
   46       -1.566425      0.793562   1.000000   1.000000
   47       -1.387069      0.947762   1.000000   1.000000
   48       -1.320537      1.085053   1.000000   1.000000
   49       -1.046242      1.278076   1.000000   1.000000
   50       -1.024003      1.336678   1.000000   1.000000
   51       -0.887732      1.388652   1.000000   1.000000
   52       -0.759051      1.675924   1.000000   1.000000
   53       -0.661034      2.369884   1.000000   1.000000
   54       -0.354601      2.477269   1.000000   1.000000
   55       -0.122049      2.664693   1.000000   1.000000
   56       -0.082891      2.852676   1.000000   1.000000
   57        0.172458      5.558125   1.000000   0.000000
   58        0.545019      5.883782   1.000000   0.000000
   59        0.547099      5.936926   1.000000   0.000000
   60        0.743378      6.179788   1.000000   0.000000
   61        0.789056      6.266365   1.000000   0.000000
   62        0.989420      6.369040   1.000000   0.000000
   63        1.096967      6.737762   1.000000   0.000000
   64        1.462944      6.780799   1.000000   0.000000
   65        1.498497      6.946405   1.000000   0.000000
   66        1.700375      7.206299   1.000000   0.000000
   67        1.892322      7.268420   1.000000   0.000000
   68        1.931006      7.359811   1.000000   0.000000
   69        2.261809      7.522814   1.000000   0.000000
   70        2.302095      7.841107   1.000000   0.000000
   71        2.593158      7.848106   1.000000   0.000000
   72        2.669019      8.019858   1.000000   0.000000
   73        7.179613      8.148699   0.000000   0.000000
   74        7.449690      8.620425   0.000000   0.000000
   75        8.106247      8.863569   0.000000   0.000000
   76        8.411218      9.489194   0.000000   0.000000
   77        8.856582      9.694816   0.000000   0.000000
   78        9.136204      9.855487   0.000000   0.000000
   79        9.232686      9.886017   0.000000   0.000000
   80        9.670694     10.313094   0.000000   0.000000
   81        9.777280     10.356937   0.000000   0.000000
   82       10.068276     10.584222   0.000000   0.000000
   83       10.120932     10.605239   0.000000   0.000000
   84       10.703275     11.230008   0.000000   0.000000
   85       10.797801     11.525619   0.000000   0.000000
   86       11.049402     11.630868   0.000000   0.000000
   87       11.340521     11.698961   0.000000   0.000000
   88       11.427669     11.885533   0.000000   0.000000
   89       11.541026     11.956504   0.000000   0.000000
   90       11.604192     12.113287   0.000000   0.000000
   91       12.256472     12.637450   0.000000   0.000000
   92       12.270389     12.692630   0.000000   0.000000
   93       12.287418     12.929496   0.000000   0.000000
   94       12.638927     13.229423   0.000000   0.000000
   95       12.707888     13.241867   0.000000   0.000000
   96       12.974294     13.368961   0.000000   0.000000
   97       13.144579     13.715307   0.000000   0.000000
   98       13.254799     13.905878   0.000000   0.000000
   99       13.650979     14.077950   0.000000   0.000000
  100       13.667534     14.392775   0.000000   0.000000

  0.5000000E+00  0.1262379E-14  0.1262379E-14  0.1666667E-01
    1      -57.271524    -51.023325   1.000000   1.000000
    2      -57.260772    -51.020078   1.000000   1.000000
    3      -57.078275    -50.984099   1.000000   1.000000
    4      -57.076537    -50.982903   1.000000   1.000000
    5      -56.885600    -50.836893   1.000000   1.000000
    6      -56.885259    -50.834614   1.000000   1.000000
    7      -55.906979    -50.689286   1.000000   1.000000
    8      -55.905845    -50.686800   1.000000   1.000000
    9      -55.654916    -50.660239   1.000000   1.000000
   10      -55.651114    -50.639574   1.000000   1.000000
   11      -55.449368    -50.634855   1.000000   1.000000
   12      -55.448650    -50.631408   1.000000   1.000000
   13      -45.461935    -45.452059   1.000000   1.000000
   14      -45.455265    -45.445547   1.000000   1.000000
   15      -45.388443    -45.382970   1.000000   1.000000
   16      -45.386779    -45.381381   1.000000   1.000000
   17      -44.656193    -44.649335   1.000000   1.000000
   18      -44.655925    -44.649067   1.000000   1.000000
   19      -44.650132    -44.643245   1.000000   1.000000
   20      -44.649679    -44.642783   1.000000   1.000000
   21      -16.887665    -16.541999   1.000000   1.000000
   22      -16.665623    -16.326805   1.000000   1.000000
   23      -10.603099    -10.380171   1.000000   1.000000
   24      -10.491440    -10.291316   1.000000   1.000000
   25       -9.945198     -9.731106   1.000000   1.000000
   26       -9.945197     -9.723409   1.000000   1.000000
   27       -9.919147     -9.713010   1.000000   1.000000
   28       -9.674184     -9.470480   1.000000   1.000000
   29       -3.727748     -2.349315   1.000000   1.000000
   30       -3.286617     -1.772997   1.000000   1.000000
   31       -2.882748     -1.554139   1.000000   1.000000
   32       -2.852465     -1.485895   1.000000   1.000000
   33       -2.545650     -1.135574   1.000000   1.000000
   34       -2.518661     -1.124435   1.000000   1.000000
   35       -2.453608     -1.030692   1.000000   1.000000
   36       -2.335844     -0.905120   1.000000   1.000000
   37       -2.230604     -0.646100   1.000000   1.000000
   38       -2.056212     -0.637041   1.000000   1.000000
   39       -2.047472     -0.263280   1.000000   1.000000
   40       -1.975192     -0.158501   1.000000   1.000000
   41       -1.953958     -0.093491   1.000000   1.000000
   42       -1.889181      0.030060   1.000000   1.000000
   43       -1.851752      0.230925   1.000000   1.000000
   44       -1.617865      0.305315   1.000000   1.000000
   45       -1.613745      0.332416   1.000000   1.000000
   46       -1.610606      0.783446   1.000000   1.000000
   47       -1.447184      1.025703   1.000000   1.000000
   48       -1.083475      1.178644   1.000000   1.000000
   49       -1.006562      1.180604   1.000000   1.000000
   50       -0.996442      1.335807   1.000000   1.000000
   51       -0.856963      1.443378   1.000000   1.000000
   52       -0.841789      1.918039   1.000000   1.000000
   53       -0.586881      2.355930   1.000000   1.000000
   54       -0.407087      2.517332   1.000000   1.000000
   55       -0.096464      2.674218   1.000000   1.000000
   56        0.048806      2.816659   1.000000   1.000000
   57        0.322088      5.797980   1.000000   0.000000
   58        0.483821      5.834922   1.000000   0.000000
   59        0.631510      5.861724   1.000000   0.000000
   60        0.699308      6.230829   1.000000   0.000000
   61        0.714173      6.370150   1.000000   0.000000
   62        1.105900      6.394603   1.000000   0.000000
   63        1.229704      6.727835   1.000000   0.000000
   64        1.292677      6.814946   1.000000   0.000000
   65        1.416264      6.937922   1.000000   0.000000
   66        1.528945      7.166772   1.000000   0.000000
   67        2.051041      7.243545   1.000000   0.000000
   68        2.100524      7.328585   1.000000   0.000000
   69        2.252650      7.668952   1.000000   0.000000
   70        2.331282      7.789351   1.000000   0.000000
   71        2.368061      7.792402   1.000000   0.000000
   72        2.574688      8.079963   1.000000   0.000000
   73        7.437382      8.392743   0.000000   0.000000
   74        7.474534      8.577438   0.000000   0.000000
   75        8.079067      8.916756   0.000000   0.000000
   76        8.563264      9.212174   0.000000   0.000000
   77        8.882458      9.676452   0.000000   0.000000
   78        8.953883      9.720199   0.000000   0.000000
   79        9.383065     10.167764   0.000000   0.000000
   80        9.739997     10.201984   0.000000   0.000000
   81        9.820605     10.407657   0.000000   0.000000
   82       10.015280     10.471059   0.000000   0.000000
   83       10.145420     10.642174   0.000000   0.000000
   84       10.391642     11.047135   0.000000   0.000000
   85       10.536869     11.186714   0.000000   0.000000
   86       10.853696     11.310204   0.000000   0.000000
   87       11.126745     11.425855   0.000000   0.000000
   88       11.136578     11.562386   0.000000   0.000000
   89       11.183771     11.899543   0.000000   0.000000
   90       11.855310     12.228950   0.000000   0.000000
   91       11.965159     12.474443   0.000000   0.000000
   92       11.999584     12.731305   0.000000   0.000000
   93       12.288489     12.752275   0.000000   0.000000
   94       12.401879     13.006623   0.000000   0.000000
   95       12.842240     13.283476   0.000000   0.000000
   96       12.972149     13.520956   0.000000   0.000000
   97       13.043192     13.614848   0.000000   0.000000
   98       13.313969     13.989981   0.000000   0.000000
   99       13.355718     14.100686   0.000000   0.000000
  100       13.612368     14.228710   0.000000   0.000000

  0.1262379E-14  0.2000000E+00  0.1278425E-14  0.3333333E-01
    1      -57.270507    -51.023015   1.000000   1.000000
    2      -57.261809    -51.020353   1.000000   1.000000
    3      -57.078110    -50.983969   1.000000   1.000000
    4      -57.076723    -50.983009   1.000000   1.000000
    5      -56.885563    -50.836675   1.000000   1.000000
    6      -56.885293    -50.834830   1.000000   1.000000
    7      -55.906871    -50.689052   1.000000   1.000000
    8      -55.905955    -50.687033   1.000000   1.000000
    9      -55.654564    -50.658233   1.000000   1.000000
   10      -55.651482    -50.641527   1.000000   1.000000
   11      -55.449297    -50.634521   1.000000   1.000000
   12      -55.448730    -50.631800   1.000000   1.000000
   13      -45.461295    -45.451430   1.000000   1.000000
   14      -45.455891    -45.446163   1.000000   1.000000
   15      -45.388276    -45.382835   1.000000   1.000000
   16      -45.386934    -45.381513   1.000000   1.000000
   17      -44.656218    -44.649367   1.000000   1.000000
   18      -44.655920    -44.649047   1.000000   1.000000
   19      -44.650083    -44.643197   1.000000   1.000000
   20      -44.649690    -44.642796   1.000000   1.000000
   21      -16.866971    -16.521977   1.000000   1.000000
   22      -16.687425    -16.347860   1.000000   1.000000
   23      -10.762596    -10.548746   1.000000   1.000000
   24      -10.205238     -9.974584   1.000000   1.000000
   25      -10.052472     -9.850100   1.000000   1.000000
   26      -10.028374     -9.832775   1.000000   1.000000
   27       -9.796851     -9.579657   1.000000   1.000000
   28       -9.714688     -9.505089   1.000000   1.000000
   29       -3.615832     -2.223677   1.000000   1.000000
   30       -3.293043     -1.936464   1.000000   1.000000
   31       -2.824144     -1.474673   1.000000   1.000000
   32       -2.687237     -1.464474   1.000000   1.000000
   33       -2.625143     -1.226958   1.000000   1.000000
   34       -2.566640     -1.195174   1.000000   1.000000
   35       -2.421476     -1.064832   1.000000   1.000000
   36       -2.412932     -0.918868   1.000000   1.000000
   37       -2.332108     -0.786649   1.000000   1.000000
   38       -2.167701     -0.666172   1.000000   1.000000
   39       -2.069117     -0.524527   1.000000   1.000000
   40       -2.057060     -0.138706   1.000000   1.000000
   41       -2.045030     -0.097340   1.000000   1.000000
   42       -2.038102      0.115613   1.000000   1.000000
   43       -1.904031      0.303309   1.000000   1.000000
   44       -1.804911      0.677804   1.000000   1.000000
   45       -1.564354      0.805394   1.000000   1.000000
   46       -1.428715      0.916716   1.000000   1.000000
   47       -1.418589      0.924001   1.000000   1.000000
   48       -1.105245      1.011139   1.000000   1.000000
   49       -0.959215      1.128372   1.000000   1.000000
   50       -0.918422      1.277024   1.000000   1.000000
   51       -0.760318      1.326033   1.000000   1.000000
   52       -0.617118      1.626238   1.000000   1.000000
   53       -0.532723      2.458985   1.000000   1.000000
   54       -0.293154      2.487114   1.000000   1.000000
   55       -0.270172      2.675910   1.000000   1.000000
   56        0.167261      2.844292   1.000000   1.000000
   57        0.247791      5.610522   1.000000   0.000000
   58        0.369542      5.850983   1.000000   0.000000
   59        0.568696      6.043696   1.000000   0.000000
   60        0.658769      6.227468   1.000000   0.000000
   61        0.856752      6.388640   1.000000   0.000000
   62        0.946609      6.397981   1.000000   0.000000
   63        1.148434      6.720929   1.000000   0.000000
   64        1.203934      6.920139   1.000000   0.000000
   65        1.570858      6.937074   1.000000   0.000000
   66        1.722239      6.951072   1.000000   0.000000
   67        1.733470      7.226955   1.000000   0.000000
   68        2.118664      7.228767   1.000000   0.000000
   69        2.146390      7.641904   1.000000   0.000000
   70        2.305870      7.660757   1.000000   0.000000
   71        2.584377      7.878309   1.000000   0.000000
   72        2.612852      7.961022   1.000000   0.000000
   73        7.236886      8.241503   0.000000   0.000000
   74        7.684650      8.654857   0.000000   0.000000
   75        8.196676      9.204590   0.000000   0.000000
   76        8.451506      9.420728   0.000000   0.000000
   77        8.939443      9.651159   0.000000   0.000000
   78        9.105998      9.708253   0.000000   0.000000
   79        9.391887     10.127019   0.000000   0.000000
   80        9.458736     10.185866   0.000000   0.000000
   81        9.932057     10.535821   0.000000   0.000000
   82       10.296708     10.835555   0.000000   0.000000
   83       10.301135     10.917467   0.000000   0.000000
   84       10.533058     11.140142   0.000000   0.000000
   85       10.771790     11.305876   0.000000   0.000000
   86       11.030921     11.596473   0.000000   0.000000
   87       11.081327     11.656389   0.000000   0.000000
   88       11.436554     11.981857   0.000000   0.000000
   89       11.456587     12.030733   0.000000   0.000000
   90       11.649550     12.241047   0.000000   0.000000
   91       11.901475     12.381814   0.000000   0.000000
   92       12.231222     12.736169   0.000000   0.000000
   93       12.273290     12.737692   0.000000   0.000000
   94       12.477227     13.085286   0.000000   0.000000
   95       12.702334     13.178776   0.000000   0.000000
   96       13.026946     13.487179   0.000000   0.000000
   97       13.099391     13.558375   0.000000   0.000000
   98       13.402524     13.856681   0.000000   0.000000
   99       13.763433     14.222557   0.000000   0.000000
  100       13.802322     14.359071   0.000000   0.000000

  0.2500000E+00  0.2000000E+00  0.1278425E-14  0.6666667E-01
    1      -57.270505    -51.023012   1.000000   1.000000
    2      -57.261808    -51.020368   1.000000   1.000000
    3      -57.078115    -50.983978   1.000000   1.000000
    4      -57.076719    -50.983015   1.000000   1.000000
    5      -56.885566    -50.836674   1.000000   1.000000
    6      -56.885293    -50.834831   1.000000   1.000000
    7      -55.906872    -50.689053   1.000000   1.000000
    8      -55.905956    -50.687038   1.000000   1.000000
    9      -55.654562    -50.658244   1.000000   1.000000
   10      -55.651484    -50.641520   1.000000   1.000000
   11      -55.449304    -50.634534   1.000000   1.000000
   12      -55.448730    -50.631794   1.000000   1.000000
   13      -45.461299    -45.451436   1.000000   1.000000
   14      -45.455907    -45.446175   1.000000   1.000000
   15      -45.388282    -45.382829   1.000000   1.000000
   16      -45.386944    -45.381531   1.000000   1.000000
   17      -44.656217    -44.649362   1.000000   1.000000
   18      -44.655943    -44.649076   1.000000   1.000000
   19      -44.650087    -44.643202   1.000000   1.000000
   20      -44.649712    -44.642819   1.000000   1.000000
   21      -16.866723    -16.521680   1.000000   1.000000
   22      -16.687120    -16.347558   1.000000   1.000000
   23      -10.686835    -10.472365   1.000000   1.000000
   24      -10.261059    -10.039847   1.000000   1.000000
   25      -10.075440     -9.871016   1.000000   1.000000
   26      -10.012716     -9.810434   1.000000   1.000000
   27       -9.832245     -9.616913   1.000000   1.000000
   28       -9.714444     -9.506096   1.000000   1.000000
   29       -3.625656     -2.253535   1.000000   1.000000
   30       -3.281822     -1.845847   1.000000   1.000000
   31       -2.832096     -1.581203   1.000000   1.000000
   32       -2.777856     -1.460021   1.000000   1.000000
   33       -2.603112     -1.241255   1.000000   1.000000
   34       -2.579914     -1.175842   1.000000   1.000000
   35       -2.439947     -1.089031   1.000000   1.000000
   36       -2.429883     -0.885101   1.000000   1.000000
   37       -2.340280     -0.768854   1.000000   1.000000
   38       -2.216141     -0.467140   1.000000   1.000000
   39       -2.140835     -0.347289   1.000000   1.000000
   40       -2.103294     -0.199702   1.000000   1.000000
   41       -2.055768     -0.107411   1.000000   1.000000
   42       -2.005564      0.008641   1.000000   1.000000
   43       -1.872618      0.354151   1.000000   1.000000
   44       -1.715515      0.556702   1.000000   1.000000
   45       -1.531165      0.600103   1.000000   1.000000
   46       -1.456287      0.798136   1.000000   1.000000
   47       -1.324340      0.962706   1.000000   1.000000
   48       -1.156034      1.090283   1.000000   1.000000
   49       -0.901183      1.126716   1.000000   1.000000
   50       -0.838200      1.306221   1.000000   1.000000
   51       -0.809917      1.415518   1.000000   1.000000
   52       -0.550229      1.648840   1.000000   1.000000
   53       -0.514176      2.454922   1.000000   1.000000
   54       -0.334306      2.539163   1.000000   1.000000
   55       -0.049515      2.675572   1.000000   1.000000
   56        0.126885      2.845050   1.000000   1.000000
   57        0.220512      5.701858   1.000000   0.000000
   58        0.458274      5.954821   1.000000   0.000000
   59        0.515617      5.983625   1.000000   0.000000
   60        0.724878      6.237028   1.000000   0.000000
   61        0.807251      6.344078   1.000000   0.000000
   62        1.022646      6.403955   1.000000   0.000000
   63        1.223279      6.724265   1.000000   0.000000
   64        1.273937      6.863142   1.000000   0.000000
   65        1.549465      6.894699   1.000000   0.000000
   66        1.754131      7.153468   1.000000   0.000000
   67        1.826203      7.185412   1.000000   0.000000
   68        1.918964      7.241160   1.000000   0.000000
   69        2.089005      7.619925   1.000000   0.000000
   70        2.277532      7.719159   1.000000   0.000000
   71        2.457365      7.823077   1.000000   0.000000
   72        2.558233      7.938223   1.000000   0.000000
   73        7.463607      8.344516   0.000000   0.000000
   74        7.846856      8.804980   0.000000   0.000000
   75        8.232876      9.125344   0.000000   0.000000
   76        8.501655      9.368652   0.000000   0.000000
   77        8.641177      9.479598   0.000000   0.000000
   78        8.880796      9.770604   0.000000   0.000000
   79        9.233260      9.973813   0.000000   0.000000
   80        9.600250     10.228678   0.000000   0.000000
   81        9.860739     10.485512   0.000000   0.000000
   82       10.103772     10.605304   0.000000   0.000000
   83       10.241300     10.808294   0.000000   0.000000
   84       10.314872     10.898031   0.000000   0.000000
   85       10.618497     11.164068   0.000000   0.000000
   86       10.933419     11.447539   0.000000   0.000000
   87       11.054719     11.495149   0.000000   0.000000
   88       11.284982     11.756982   0.000000   0.000000
   89       11.389981     11.999250   0.000000   0.000000
   90       11.589372     12.129580   0.000000   0.000000
   91       11.876425     12.434229   0.000000   0.000000
   92       12.208424     12.660349   0.000000   0.000000
   93       12.374725     12.978997   0.000000   0.000000
   94       12.559263     13.109636   0.000000   0.000000
   95       12.773335     13.351861   0.000000   0.000000
   96       13.080798     13.651724   0.000000   0.000000
   97       13.326343     13.689091   0.000000   0.000000
   98       13.405647     13.866090   0.000000   0.000000
   99       13.513720     14.002924   0.000000   0.000000
  100       13.763508     14.052958   0.000000   0.000000

  0.5000000E+00  0.2000000E+00  0.1278425E-14  0.3333333E-01
    1      -57.270506    -51.023010   1.000000   1.000000
    2      -57.261807    -51.020384   1.000000   1.000000
    3      -57.078121    -50.983983   1.000000   1.000000
    4      -57.076715    -50.983019   1.000000   1.000000
    5      -56.885565    -50.836673   1.000000   1.000000
    6      -56.885293    -50.834831   1.000000   1.000000
    7      -55.906870    -50.689050   1.000000   1.000000