# energy dos(up) dos(down)
-6.379889999999999617e+01 0.000000000000000000e+00 -0.000000000000000000e+00
-6.375939999999999230e+01 0.000000000000000000e+00 -0.000000000000000000e+00
-6.371979999999999222e+01 0.000000000000000000e+00 -0.000000000000000000e+00
-6.368029999999999546e+01 0.000000000000000000e+00 -0.000000000000000000e+00
-6.364079999999999160e+01 0.000000000000000000e+00 -0.000000000000000000e+00
-6.360129999999999484e+01 0.000000000000000000e+00 -0.000000000000000000e+00
-6.356179999999999808e+01 0.000000000000000000e+00 -0.000000000000000000e+00
-6.352229999999999421e+01 0.000000000000000000e+00 -0.000000000000000000e+00
-6.348269999999999413e+01 0.000000000000000000e+00 -0.000000000000000000e+00
-6.344319999999999737e+01 0.000000000000000000e+00 -0.000000000000000000e+00
-6.340369999999999351e+01 0.000000000000000000e+00 -0.000000000000000000e+00
-6.336419999999999675e+01 0.000000000000000000e+00 -0.000000000000000000e+00
-6.332469999999999288e+01 0.000000000000000000e+00 -0.000000000000000000e+00
-6.328519999999999612e+01 0.000000000000000000e+00 -0.000000000000000000e+00
-6.324559999999999604e+01 0.000000000000000000e+00 -0.000000000000000000e+00
-6.320609999999999218e+01 0.000000000000000000e+00 -0.000000000000000000e+00
-6.316659999999999542e+01 0.000000000000000000e+00 -0.000000000000000000e+00
-6.312709999999999155e+01 0.000000000000000000e+00 -0.000000000000000000e+00
-6.308759999999999479e+01 0.000000000000000000e+00 -0.000000000000000000e+00
-6.304809999999999803e+01 0.000000000000000000e+00 -0.000000000000000000e+00
-6.300849999999999795e+01 0.000000000000000000e+00 -0.000000000000000000e+00
-6.296899999999999409e+01 0.000000000000000000e+00 -0.000000000000000000e+00
-6.292949999999999733e+01 0.000000000000000000e+00 -0.000000000000000000e+00
-6.288999999999999346e+01 0.000000000000000000e+00 -0.000000000000000000e+00
-6.285049999999999670e+01 0.000000000000000000e+00 -0.000000000000000000e+00
-6.281099999999999284e+01 0.000000000000000000e+00 -0.000000000000000000e+00
-6.277139999999999276e+01 0.000000000000000000e+00 -0.000000000000000000e+00
-6.273189999999999600e+01 0.000000000000000000e+00 -0.000000000000000000e+00
-6.269239999999999213e+01 0.000000000000000000e+00 -0.000000000000000000e+00
-6.265289999999999537e+01 0.000000000000000000e+00 -0.000000000000000000e+00
-6.261339999999999151e+01 0.000000000000000000e+00 -0.000000000000000000e+00
-6.257389999999999475e+01 0.000000000000000000e+00 -0.000000000000000000e+00
-6.253429999999999467e+01 0.000000000000000000e+00 -0.000000000000000000e+00
-6.249479999999999791e+01 0.000000000000000000e+00 -0.000000000000000000e+00
-6.245529999999999404e+01 0.000000000000000000e+00 -0.000000000000000000e+00
-6.241579999999999728e+01 0.000000000000000000e+00 -0.000000000000000000e+00
-6.237629999999999342e+01 0.000000000000000000e+00 -0.000000000000000000e+00
-6.233679999999999666e+01 0.000000000000000000e+00 -0.000000000000000000e+00
-6.229719999999999658e+01 0.000000000000000000e+00 -0.000000000000000000e+00
-6.225769999999999271e+01 0.000000000000000000e+00 -0.000000000000000000e+00
-6.221819999999999595e+01 0.000000000000000000e+00 -0.000000000000000000e+00
-6.217869999999999209e+01 0.000000000000000000e+00 -0.000000000000000000e+00
-6.213919999999999533e+01 0.000000000000000000e+00 -0.000000000000000000e+00
-6.209969999999999146e+01 0.000000000000000000e+00 -0.000000000000000000e+00
-6.206009999999999138e+01 0.000000000000000000e+00 -0.000000000000000000e+00
-6.202059999999999462e+01 0.000000000000000000e+00 -0.000000000000000000e+00
-6.198109999999999786e+01 0.000000000000000000e+00 -0.000000000000000000e+00
-6.194159999999999400e+01 0.000000000000000000e+00 -0.000000000000000000e+00
-6.190209999999999724e+01 0.000000000000000000e+00 -0.000000000000000000e+00
-6.186259999999999337e+01 0.000000000000000000e+00 -0.000000000000000000e+00
-6.182299999999999329e+01 0.000000000000000000e+00 -0.000000000000000000e+00
-6.178349999999999653e+01 0.000000000000000000e+00 -0.000000000000000000e+00
-6.174399999999999267e+01 0.000000000000000000e+00 -0.000000000000000000e+00
-6.170449999999999591e+01 0.000000000000000000e+00 -0.000000000000000000e+00
-6.166499999999999204e+01 0.000000000000000000e+00 -0.000000000000000000e+00
-6.162539999999999196e+01 0.000000000000000000e+00 -0.000000000000000000e+00
-6.158589999999999520e+01 0.000000000000000000e+00 -0.000000000000000000e+00
-6.154639999999999134e+01 0.000000000000000000e+00 -0.000000000000000000e+00
-6.150689999999999458e+01 0.000000000000000000e+00 -0.000000000000000000e+00
-6.146739999999999782e+01 0.000000000000000000e+00 -0.000000000000000000e+00
-6.142789999999999395e+01 0.000000000000000000e+00 -0.000000000000000000e+00
-6.138829999999999387e+01 0.000000000000000000e+00 -0.000000000000000000e+00
-6.134879999999999711e+01 0.000000000000000000e+00 -0.000000000000000000e+00
-6.130929999999999325e+01 0.000000000000000000e+00 -0.000000000000000000e+00
-6.126979999999999649e+01 0.000000000000000000e+00 -0.000000000000000000e+00
-6.123029999999999262e+01 0.000000000000000000e+00 -0.000000000000000000e+00
-6.119079999999999586e+01 0.000000000000000000e+00 -0.000000000000000000e+00
-6.115119999999999578e+01 0.000000000000000000e+00 -0.000000000000000000e+00
-6.111169999999999192e+01 0.000000000000000000e+00 -0.000000000000000000e+00
-6.107219999999999516e+01 0.000000000000000000e+00 -0.000000000000000000e+00
-6.103269999999999129e+01 0.000000000000000000e+00 -0.000000000000000000e+00
-6.099319999999999453e+01 0.000000000000000000e+00 -0.000000000000000000e+00
-6.095369999999999777e+01 0.000000000000000000e+00 -0.000000000000000000e+00
-6.091409999999999769e+01 0.000000000000000000e+00 -0.000000000000000000e+00
-6.087459999999999383e+01 0.000000000000000000e+00 -0.000000000000000000e+00
-6.083509999999999707e+01 0.000000000000000000e+00 -0.000000000000000000e+00
-6.079559999999999320e+01 0.000000000000000000e+00 -0.000000000000000000e+00
-6.075609999999999644e+01 0.000000000000000000e+00 -0.000000000000000000e+00
-6.071659999999999258e+01 0.000000000000000000e+00 -0.000000000000000000e+00
-6.067699999999999250e+01 0.000000000000000000e+00 -0.000000000000000000e+00
-6.063749999999999574e+01 0.000000000000000000e+00 -0.000000000000000000e+00
-6.059799999999999187e+01 0.000000000000000000e+00 -0.000000000000000000e+00
-6.055849999999999511e+01 0.000000000000000000e+00 -0.000000000000000000e+00
-6.051899999999999125e+01 0.000000000000000000e+00 -0.000000000000000000e+00
-6.047949999999999449e+01 0.000000000000000000e+00 -0.000000000000000000e+00
-6.043989999999999441e+01 0.000000000000000000e+00 -0.000000000000000000e+00
-6.040039999999999765e+01 0.000000000000000000e+00 -0.000000000000000000e+00
-6.036089999999999378e+01 2.000000000000000096e-04 -0.000000000000000000e+00
-6.032139999999999702e+01 2.149999999999999828e-02 -0.000000000000000000e+00
-6.028189999999999316e+01 6.429000000000000270e-01 -0.000000000000000000e+00
-6.024239999999999640e+01 6.081699999999999662e+00 -0.000000000000000000e+00
-6.020279999999999632e+01 1.856629999999999825e+01 -0.000000000000000000e+00
-6.016329999999999245e+01 1.856050000000000111e+01 -0.000000000000000000e+00
-6.012379999999999569e+01 6.123400000000000176e+00 -0.000000000000000000e+00
-6.008429999999999183e+01 1.787500000000000089e+00 -0.000000000000000000e+00
-6.004479999999999507e+01 8.593299999999999272e+00 -0.000000000000000000e+00
-6.000529999999999831e+01 2.054540000000000077e+01 -0.000000000000000000e+00
-5.996569999999999823e+01 1.596640000000000015e+01 -0.000000000000000000e+00
-5.992619999999999436e+01 4.088099999999999845e+00 -0.000000000000000000e+00
-5.988669999999999760e+01 1.951999999999999957e+00 -0.000000000000000000e+00
-5.984719999999999374e+01 1.039869999999999983e+01 -0.000000000000000000e+00
-5.980769999999999698e+01 2.122960000000000136e+01 -0.000000000000000000e+00
-5.976819999999999311e+01 1.406530000000000058e+01 -0.000000000000000000e+00
-5.972859999999999303e+01 3.003899999999999793e+00 -0.000000000000000000e+00
-5.968909999999999627e+01 2.030000000000000138e-01 -0.000000000000000000e+00
-5.964959999999999241e+01 4.199999999999999740e-03 -0.000000000000000000e+00
-5.961009999999999565e+01 0.000000000000000000e+00 -0.000000000000000000e+00
-5.957059999999999178e+01 0.000000000000000000e+00 -0.000000000000000000e+00
-5.953109999999999502e+01 0.000000000000000000e+00 -0.000000000000000000e+00
-5.949149999999999494e+01 0.000000000000000000e+00 -0.000000000000000000e+00
-5.945199999999999818e+01 0.000000000000000000e+00 -0.000000000000000000e+00
-5.941249999999999432e+01 0.000000000000000000e+00 -0.000000000000000000e+00
-5.937299999999999756e+01 0.000000000000000000e+00 -0.000000000000000000e+00
-5.933349999999999369e+01 0.000000000000000000e+00 -0.000000000000000000e+00
-5.929399999999999693e+01 0.000000000000000000e+00 -0.000000000000000000e+00
-5.925439999999999685e+01 0.000000000000000000e+00 -0.000000000000000000e+00
-5.921489999999999299e+01 0.000000000000000000e+00 -0.000000000000000000e+00
-5.917539999999999623e+01 0.000000000000000000e+00 -0.000000000000000000e+00
-5.913589999999999236e+01 0.000000000000000000e+00 -0.000000000000000000e+00
-5.909639999999999560e+01 0.000000000000000000e+00 -0.000000000000000000e+00
-5.905689999999999173e+01 0.000000000000000000e+00 -0.000000000000000000e+00
-5.901729999999999166e+01 0.000000000000000000e+00 -0.000000000000000000e+00
-5.897779999999999490e+01 3.500000000000000073e-03 -0.000000000000000000e+00
-5.893829999999999814e+01 1.761000000000000065e-01 -0.000000000000000000e+00
-5.889879999999999427e+01 2.739100000000000090e+00 -0.000000000000000000e+00
-5.885929999999999751e+01 1.347070000000000078e+01 -0.000000000000000000e+00
-5.881979999999999364e+01 2.134489999999999910e+01 -0.000000000000000000e+00
-5.878019999999999357e+01 1.097000000000000064e+01 -0.000000000000000000e+00
-5.874069999999999681e+01 1.812000000000000055e+00 -0.000000000000000000e+00
-5.870119999999999294e+01 1.348999999999999921e-01 -0.000000000000000000e+00
-5.866169999999999618e+01 1.022000000000000020e+00 -0.000000000000000000e+00
-5.862219999999999231e+01 8.025499999999999190e+00 -0.000000000000000000e+00
-5.858269999999999555e+01 2.022609999999999886e+01 -0.000000000000000000e+00
-5.854309999999999548e+01 1.654240000000000066e+01 -0.000000000000000000e+00
-5.850359999999999161e+01 4.399000000000000021e+00 -0.000000000000000000e+00
-5.846409999999999485e+01 1.020699999999999941e+00 -0.000000000000000000e+00
-5.842459999999999809e+01 6.209600000000000009e+00 -0.000000000000000000e+00
-5.838509999999999422e+01 1.880260000000000176e+01 -0.000000000000000000e+00
-5.834559999999999746e+01 1.845830000000000126e+01 -0.000000000000000000e+00
-5.830599999999999739e+01 5.864099999999999646e+00 -0.000000000000000000e+00
-5.826649999999999352e+01 5.937999999999999945e-01 -0.000000000000000000e+00
-5.822699999999999676e+01 1.870000000000000134e-02 -0.000000000000000000e+00
-5.818749999999999289e+01 2.000000000000000096e-04 -0.000000000000000000e+00
-5.814799999999999613e+01 0.000000000000000000e+00 -0.000000000000000000e+00
-5.810849999999999227e+01 0.000000000000000000e+00 -0.000000000000000000e+00
-5.806889999999999219e+01 0.000000000000000000e+00 -0.000000000000000000e+00
-5.802939999999999543e+01 0.000000000000000000e+00 -0.000000000000000000e+00
-5.798989999999999156e+01 0.000000000000000000e+00 -0.000000000000000000e+00
-5.795039999999999480e+01 0.000000000000000000e+00 -0.000000000000000000e+00
-5.791089999999999804e+01 0.000000000000000000e+00 -0.000000000000000000e+00
-5.787139999999999418e+01 0.000000000000000000e+00 -0.000000000000000000e+00
-5.783179999999999410e+01 0.000000000000000000e+00 -0.000000000000000000e+00
-5.779229999999999734e+01 0.000000000000000000e+00 -0.000000000000000000e+00
-5.775279999999999347e+01 0.000000000000000000e+00 -0.000000000000000000e+00
-5.771329999999999671e+01 0.000000000000000000e+00 -0.000000000000000000e+00
-5.767379999999999285e+01 0.000000000000000000e+00 -0.000000000000000000e+00
-5.763429999999999609e+01 0.000000000000000000e+00 -0.000000000000000000e+00
-5.759469999999999601e+01 0.000000000000000000e+00 -0.000000000000000000e+00
-5.755519999999999214e+01 0.000000000000000000e+00 -0.000000000000000000e+00
-5.751569999999999538e+01 0.000000000000000000e+00 -0.000000000000000000e+00
-5.747619999999999152e+01 0.000000000000000000e+00 -0.000000000000000000e+00
-5.743669999999999476e+01 0.000000000000000000e+00 -0.000000000000000000e+00
-5.739709999999999468e+01 0.000000000000000000e+00 -0.000000000000000000e+00
-5.735759999999999792e+01 0.000000000000000000e+00 -0.000000000000000000e+00
-5.731809999999999405e+01 0.000000000000000000e+00 -0.000000000000000000e+00
-5.727859999999999729e+01 0.000000000000000000e+00 -0.000000000000000000e+00
-5.723909999999999343e+01 0.000000000000000000e+00 -0.000000000000000000e+00
-5.719959999999999667e+01 0.000000000000000000e+00 -0.000000000000000000e+00
-5.715999999999999659e+01 0.000000000000000000e+00 -0.000000000000000000e+00
-5.712049999999999272e+01 0.000000000000000000e+00 -0.000000000000000000e+00
-5.708099999999999596e+01 0.000000000000000000e+00 -0.000000000000000000e+00
-5.704149999999999210e+01 0.000000000000000000e+00 -0.000000000000000000e+00
-5.700199999999999534e+01 0.000000000000000000e+00 -0.000000000000000000e+00
-5.696249999999999147e+01 0.000000000000000000e+00 -0.000000000000000000e+00
-5.692289999999999139e+01 0.000000000000000000e+00 -0.000000000000000000e+00
-5.688339999999999463e+01 0.000000000000000000e+00 -0.000000000000000000e+00
-5.684389999999999787e+01 0.000000000000000000e+00 -0.000000000000000000e+00
-5.680439999999999401e+01 0.000000000000000000e+00 -0.000000000000000000e+00
-5.676489999999999725e+01 0.000000000000000000e+00 -0.000000000000000000e+00
-5.672539999999999338e+01 0.000000000000000000e+00 -0.000000000000000000e+00
-5.668579999999999330e+01 0.000000000000000000e+00 -0.000000000000000000e+00
-5.664629999999999654e+01 0.000000000000000000e+00 -0.000000000000000000e+00
-5.660679999999999268e+01 0.000000000000000000e+00 -0.000000000000000000e+00
-5.656729999999999592e+01 0.000000000000000000e+00 -0.000000000000000000e+00
-5.652779999999999205e+01 0.000000000000000000e+00 -0.000000000000000000e+00
-5.648829999999999529e+01 0.000000000000000000e+00 -0.000000000000000000e+00
-5.644869999999999521e+01 0.000000000000000000e+00 -0.000000000000000000e+00
-5.640919999999999135e+01 0.000000000000000000e+00 -0.000000000000000000e+00
-5.636969999999999459e+01 0.000000000000000000e+00 -0.000000000000000000e+00
-5.633019999999999783e+01 0.000000000000000000e+00 -0.000000000000000000e+00
-5.629069999999999396e+01 0.000000000000000000e+00 -0.000000000000000000e+00
-5.625119999999999720e+01 0.000000000000000000e+00 -0.000000000000000000e+00
-5.621159999999999712e+01 0.000000000000000000e+00 -0.000000000000000000e+00
-5.617209999999999326e+01 0.000000000000000000e+00 -0.000000000000000000e+00
-5.613259999999999650e+01 0.000000000000000000e+00 -0.000000000000000000e+00
-5.609309999999999263e+01 0.000000000000000000e+00 -0.000000000000000000e+00
-5.605359999999999587e+01 0.000000000000000000e+00 -0.000000000000000000e+00
-5.601409999999999201e+01 0.000000000000000000e+00 -0.000000000000000000e+00
-5.597449999999999193e+01 0.000000000000000000e+00 -0.000000000000000000e+00
-5.593499999999999517e+01 0.000000000000000000e+00 -0.000000000000000000e+00
-5.589549999999999130e+01 0.000000000000000000e+00 -0.000000000000000000e+00
-5.585599999999999454e+01 0.000000000000000000e+00 -0.000000000000000000e+00
-5.581649999999999778e+01 0.000000000000000000e+00 -0.000000000000000000e+00
-5.577699999999999392e+01 0.000000000000000000e+00 -0.000000000000000000e+00
-5.573739999999999384e+01 0.000000000000000000e+00 -0.000000000000000000e+00
-5.569789999999999708e+01 0.000000000000000000e+00 -0.000000000000000000e+00
-5.565839999999999321e+01 0.000000000000000000e+00 -0.000000000000000000e+00
-5.561889999999999645e+01 0.000000000000000000e+00 -0.000000000000000000e+00
-5.557939999999999259e+01 0.000000000000000000e+00 -0.000000000000000000e+00
-5.553989999999999583e+01 0.000000000000000000e+00 -0.000000000000000000e+00
-5.550029999999999575e+01 0.000000000000000000e+00 -0.000000000000000000e+00
-5.546079999999999188e+01 0.000000000000000000e+00 -0.000000000000000000e+00
-5.542129999999999512e+01 0.000000000000000000e+00 -0.000000000000000000e+00
-5.538179999999999126e+01 0.000000000000000000e+00 -0.000000000000000000e+00
-5.534229999999999450e+01 0.000000000000000000e+00 -0.000000000000000000e+00
-5.530279999999999774e+01 0.000000000000000000e+00 -0.000000000000000000e+00
-5.526319999999999766e+01 0.000000000000000000e+00 -0.000000000000000000e+00
-5.522369999999999379e+01 0.000000000000000000e+00 -0.000000000000000000e+00
-5.518419999999999703e+01 0.000000000000000000e+00 -0.000000000000000000e+00
-5.514469999999999317e+01 0.000000000000000000e+00 -0.000000000000000000e+00
-5.510519999999999641e+01 0.000000000000000000e+00 -0.000000000000000000e+00
-5.506569999999999254e+01 0.000000000000000000e+00 -0.000000000000000000e+00
-5.502609999999999246e+01 0.000000000000000000e+00 -0.000000000000000000e+00
-5.498659999999999570e+01 0.000000000000000000e+00 -0.000000000000000000e+00
-5.494709999999999184e+01 0.000000000000000000e+00 -0.000000000000000000e+00
-5.490759999999999508e+01 0.000000000000000000e+00 -0.000000000000000000e+00
-5.486809999999999121e+01 0.000000000000000000e+00 -0.000000000000000000e+00
-5.482859999999999445e+01 0.000000000000000000e+00 -0.000000000000000000e+00
-5.478899999999999437e+01 0.000000000000000000e+00 -0.000000000000000000e+00
-5.474949999999999761e+01 0.000000000000000000e+00 -0.000000000000000000e+00
-5.470999999999999375e+01 0.000000000000000000e+00 -0.000000000000000000e+00
-5.467049999999999699e+01 0.000000000000000000e+00 -0.000000000000000000e+00
-5.463099999999999312e+01 0.000000000000000000e+00 -0.000000000000000000e+00
-5.459149999999999636e+01 0.000000000000000000e+00 -0.000000000000000000e+00
-5.455189999999999628e+01 0.000000000000000000e+00 -0.000000000000000000e+00
-5.451239999999999242e+01 0.000000000000000000e+00 -0.000000000000000000e+00
-5.447289999999999566e+01 0.000000000000000000e+00 -0.000000000000000000e+00
-5.443339999999999179e+01 0.000000000000000000e+00 -0.000000000000000000e+00
-5.439389999999999503e+01 0.000000000000000000e+00 -0.000000000000000000e+00
-5.435439999999999827e+01 0.000000000000000000e+00 -0.000000000000000000e+00
-5.431479999999999819e+01 0.000000000000000000e+00 -0.000000000000000000e+00
-5.427529999999999433e+01 0.000000000000000000e+00 -0.000000000000000000e+00
-5.423579999999999757e+01 0.000000000000000000e+00 -0.000000000000000000e+00
-5.419629999999999370e+01 0.000000000000000000e+00 -0.000000000000000000e+00
-5.415679999999999694e+01 0.000000000000000000e+00 -0.000000000000000000e+00
-5.411729999999999308e+01 0.000000000000000000e+00 -2.000000000000000096e-04
-5.407769999999999300e+01 0.000000000000000000e+00 -1.880000000000000074e-02
-5.403819999999999624e+01 0.000000000000000000e+00 -6.101999999999999647e-01
-5.399869999999999237e+01 0.000000000000000000e+00 -6.476399999999999935e+00
-5.395919999999999561e+01 0.000000000000000000e+00 -2.457929999999999993e+01
-5.391969999999999175e+01 0.000000000000000000e+00 -3.760629999999999740e+01
-5.388019999999999499e+01 0.000000000000000000e+00 -2.479309999999999903e+01
-5.384059999999999491e+01 0.000000000000000000e+00 -7.860500000000000043e+00
-5.380109999999999815e+01 0.000000000000000000e+00 -9.824999999999999289e+00
-5.376159999999999428e+01 0.000000000000000000e+00 -2.085879999999999868e+01
-5.372209999999999752e+01 0.000000000000000000e+00 -1.545279999999999987e+01
-5.368259999999999366e+01 0.000000000000000000e+00 -6.290399999999999991e+00
-5.364309999999999690e+01 0.000000000000000000e+00 -1.671549999999999869e+01
-5.360349999999999682e+01 0.000000000000000000e+00 -4.227150000000000318e+01
-5.356399999999999295e+01 0.000000000000000000e+00 -5.268659999999999854e+01
-5.352449999999999619e+01 0.000000000000000000e+00 -3.028969999999999985e+01
-5.348499999999999233e+01 0.000000000000000000e+00 -6.792500000000000426e+00
-5.344549999999999557e+01 0.000000000000000000e+00 -5.272000000000000020e-01
-5.340589999999999549e+01 0.000000000000000000e+00 -1.329999999999999932e-02
-5.336639999999999162e+01 0.000000000000000000e+00 -1.000000000000000048e-04
-5.332689999999999486e+01 0.000000000000000000e+00 -0.000000000000000000e+00
-5.328739999999999810e+01 0.000000000000000000e+00 -0.000000000000000000e+00
-5.324789999999999424e+01 0.000000000000000000e+00 -0.000000000000000000e+00
-5.320839999999999748e+01 0.000000000000000000e+00 -0.000000000000000000e+00
-5.316879999999999740e+01 0.000000000000000000e+00 -0.000000000000000000e+00
-5.312929999999999353e+01 0.000000000000000000e+00 -0.000000000000000000e+00
-5.308979999999999677e+01 0.000000000000000000e+00 -0.000000000000000000e+00
-5.305029999999999291e+01 0.000000000000000000e+00 -0.000000000000000000e+00
-5.301079999999999615e+01 0.000000000000000000e+00 -0.000000000000000000e+00
-5.297129999999999228e+01 0.000000000000000000e+00 -0.000000000000000000e+00
-5.293169999999999220e+01 0.000000000000000000e+00 -0.000000000000000000e+00
-5.289219999999999544e+01 0.000000000000000000e+00 -0.000000000000000000e+00
-5.285269999999999158e+01 0.000000000000000000e+00 -0.000000000000000000e+00
-5.281319999999999482e+01 0.000000000000000000e+00 -0.000000000000000000e+00
-5.277369999999999806e+01 0.000000000000000000e+00 -0.000000000000000000e+00
-5.273419999999999419e+01 0.000000000000000000e+00 -0.000000000000000000e+00
-5.269459999999999411e+01 0.000000000000000000e+00 -0.000000000000000000e+00
-5.265509999999999735e+01 0.000000000000000000e+00 -0.000000000000000000e+00
-5.261559999999999349e+01 0.000000000000000000e+00 -0.000000000000000000e+00
-5.257609999999999673e+01 0.000000000000000000e+00 -0.000000000000000000e+00
-5.253659999999999286e+01 0.000000000000000000e+00 -0.000000000000000000e+00
-5.249709999999999610e+01 0.000000000000000000e+00 -0.000000000000000000e+00
-5.245749999999999602e+01 0.000000000000000000e+00 -0.000000000000000000e+00
-5.241799999999999216e+01 0.000000000000000000e+00 -0.000000000000000000e+00
-5.237849999999999540e+01 0.000000000000000000e+00 -0.000000000000000000e+00
-5.233899999999999153e+01 0.000000000000000000e+00 -0.000000000000000000e+00
-5.229949999999999477e+01 0.000000000000000000e+00 -0.000000000000000000e+00
-5.225999999999999801e+01 0.000000000000000000e+00 -0.000000000000000000e+00
-5.222039999999999793e+01 0.000000000000000000e+00 -0.000000000000000000e+00
-5.218089999999999407e+01 0.000000000000000000e+00 -0.000000000000000000e+00
-5.214139999999999731e+01 0.000000000000000000e+00 -0.000000000000000000e+00
-5.210189999999999344e+01 0.000000000000000000e+00 -0.000000000000000000e+00
-5.206239999999999668e+01 0.000000000000000000e+00 -0.000000000000000000e+00
-5.202289999999999281e+01 0.000000000000000000e+00 -0.000000000000000000e+00
-5.198329999999999274e+01 0.000000000000000000e+00 -0.000000000000000000e+00
-5.194379999999999598e+01 0.000000000000000000e+00 -0.000000000000000000e+00
-5.190429999999999211e+01 0.000000000000000000e+00 -0.000000000000000000e+00
-5.186479999999999535e+01 0.000000000000000000e+00 -0.000000000000000000e+00
-5.182529999999999148e+01 0.000000000000000000e+00 -0.000000000000000000e+00
-5.178579999999999472e+01 0.000000000000000000e+00 -0.000000000000000000e+00
-5.174619999999999465e+01 0.000000000000000000e+00 -0.000000000000000000e+00
-5.170669999999999789e+01 0.000000000000000000e+00 -0.000000000000000000e+00
-5.166719999999999402e+01 0.000000000000000000e+00 -0.000000000000000000e+00
-5.162769999999999726e+01 0.000000000000000000e+00 -0.000000000000000000e+00
-5.158819999999999339e+01 0.000000000000000000e+00 -0.000000000000000000e+00
-5.154869999999999663e+01 0.000000000000000000e+00 -0.000000000000000000e+00
-5.150909999999999656e+01 0.000000000000000000e+00 -0.000000000000000000e+00
-5.146959999999999269e+01 0.000000000000000000e+00 -0.000000000000000000e+00
-5.143009999999999593e+01 0.000000000000000000e+00 -0.000000000000000000e+00
-5.139059999999999206e+01 0.000000000000000000e+00 -0.000000000000000000e+00
-5.135109999999999530e+01 0.000000000000000000e+00 -0.000000000000000000e+00
-5.131159999999999144e+01 0.000000000000000000e+00 -0.000000000000000000e+00
-5.127199999999999136e+01 0.000000000000000000e+00 -0.000000000000000000e+00
-5.123249999999999460e+01 0.000000000000000000e+00 -0.000000000000000000e+00
-5.119299999999999784e+01 0.000000000000000000e+00 -0.000000000000000000e+00
-5.115349999999999397e+01 0.000000000000000000e+00 -0.000000000000000000e+00
-5.111399999999999721e+01 0.000000000000000000e+00 -0.000000000000000000e+00
-5.107449999999999335e+01 0.000000000000000000e+00 -0.000000000000000000e+00
-5.103489999999999327e+01 0.000000000000000000e+00 -0.000000000000000000e+00
-5.099539999999999651e+01 0.000000000000000000e+00 -0.000000000000000000e+00
-5.095589999999999264e+01 0.000000000000000000e+00 -0.000000000000000000e+00
-5.091639999999999588e+01 0.000000000000000000e+00 -0.000000000000000000e+00
-5.087689999999999202e+01 0.000000000000000000e+00 -0.000000000000000000e+00
-5.083739999999999526e+01 0.000000000000000000e+00 -0.000000000000000000e+00
-5.079779999999999518e+01 0.000000000000000000e+00 -0.000000000000000000e+00
-5.075829999999999131e+01 0.000000000000000000e+00 -0.000000000000000000e+00
-5.071879999999999455e+01 0.000000000000000000e+00 -0.000000000000000000e+00
-5.067929999999999779e+01 0.000000000000000000e+00 -0.000000000000000000e+00
-5.063979999999999393e+01 0.000000000000000000e+00 -0.000000000000000000e+00
-5.060029999999999717e+01 0.000000000000000000e+00 -0.000000000000000000e+00
-5.056069999999999709e+01 0.000000000000000000e+00 -0.000000000000000000e+00
-5.052119999999999322e+01 0.000000000000000000e+00 -0.000000000000000000e+00
-5.048169999999999646e+01 0.000000000000000000e+00 -0.000000000000000000e+00
-5.044219999999999260e+01 0.000000000000000000e+00 -0.000000000000000000e+00
-5.040269999999999584e+01 0.000000000000000000e+00 -0.000000000000000000e+00
-5.036319999999999197e+01 0.000000000000000000e+00 -0.000000000000000000e+00
-5.032359999999999189e+01 0.000000000000000000e+00 -0.000000000000000000e+00
-5.028409999999999513e+01 0.000000000000000000e+00 -0.000000000000000000e+00
-5.024459999999999127e+01 0.000000000000000000e+00 -0.000000000000000000e+00
-5.020509999999999451e+01 0.000000000000000000e+00 -0.000000000000000000e+00
-5.016559999999999775e+01 0.000000000000000000e+00 -0.000000000000000000e+00
-5.012609999999999388e+01 0.000000000000000000e+00 -0.000000000000000000e+00
-5.008649999999999380e+01 0.000000000000000000e+00 -0.000000000000000000e+00
-5.004699999999999704e+01 0.000000000000000000e+00 -0.000000000000000000e+00
-5.000749999999999318e+01 0.000000000000000000e+00 -0.000000000000000000e+00
-4.996799999999999642e+01 0.000000000000000000e+00 -0.000000000000000000e+00
-4.992849999999999255e+01 0.000000000000000000e+00 -0.000000000000000000e+00
-4.988899999999999579e+01 0.000000000000000000e+00 -0.000000000000000000e+00
-4.984939999999999571e+01 0.000000000000000000e+00 -0.000000000000000000e+00
-4.980989999999999185e+01 0.000000000000000000e+00 -0.000000000000000000e+00
-4.977039999999999509e+01 0.000000000000000000e+00 -0.000000000000000000e+00
-4.973089999999999122e+01 0.000000000000000000e+00 -0.000000000000000000e+00
-4.969139999999999446e+01 0.000000000000000000e+00 -0.000000000000000000e+00
-4.965189999999999770e+01 0.000000000000000000e+00 -0.000000000000000000e+00
-4.961229999999999762e+01 0.000000000000000000e+00 -0.000000000000000000e+00
-4.957279999999999376e+01 0.000000000000000000e+00 -0.000000000000000000e+00
-4.953329999999999700e+01 0.000000000000000000e+00 -0.000000000000000000e+00
-4.949379999999999313e+01 0.000000000000000000e+00 -0.000000000000000000e+00
-4.945429999999999637e+01 0.000000000000000000e+00 -0.000000000000000000e+00
-4.941479999999999251e+01 0.000000000000000000e+00 -0.000000000000000000e+00
-4.937519999999999243e+01 0.000000000000000000e+00 -0.000000000000000000e+00
-4.933569999999999567e+01 0.000000000000000000e+00 -0.000000000000000000e+00
-4.929619999999999180e+01 0.000000000000000000e+00 -0.000000000000000000e+00
-4.925669999999999504e+01 0.000000000000000000e+00 -0.000000000000000000e+00
-4.921719999999999828e+01 0.000000000000000000e+00 -0.000000000000000000e+00
-4.917759999999999820e+01 0.000000000000000000e+00 -0.000000000000000000e+00
-4.913809999999999434e+01 0.000000000000000000e+00 -0.000000000000000000e+00
-4.909859999999999758e+01 0.000000000000000000e+00 -0.000000000000000000e+00
-4.905909999999999371e+01 0.000000000000000000e+00 -0.000000000000000000e+00
-4.901959999999999695e+01 0.000000000000000000e+00 -0.000000000000000000e+00
-4.898009999999999309e+01 0.000000000000000000e+00 -0.000000000000000000e+00
-4.894049999999999301e+01 0.000000000000000000e+00 -0.000000000000000000e+00
-4.890099999999999625e+01 0.000000000000000000e+00 -0.000000000000000000e+00
-4.886149999999999238e+01 0.000000000000000000e+00 -0.000000000000000000e+00
-4.882199999999999562e+01 0.000000000000000000e+00 -0.000000000000000000e+00
-4.878249999999999176e+01 0.000000000000000000e+00 -0.000000000000000000e+00
-4.874299999999999500e+01 0.000000000000000000e+00 -0.000000000000000000e+00
-4.870339999999999492e+01 0.000000000000000000e+00 -0.000000000000000000e+00
-4.866389999999999816e+01 0.000000000000000000e+00 -0.000000000000000000e+00
-4.862439999999999429e+01 0.000000000000000000e+00 -0.000000000000000000e+00
-4.858489999999999753e+01 0.000000000000000000e+00 -0.000000000000000000e+00
-4.854539999999999367e+01 5.999999999999999474e-04 -2.000000000000000096e-04
-4.850589999999999691e+01 4.510000000000000120e-02 -1.700000000000000122e-02
-4.846629999999999683e+01 1.092300000000000049e+00 -5.523000000000000131e-01