  20  20   0   0
  0.1218736E+02  0.7712411E-09  0.5605121E-09  0.5638514E-09  0.5000000E-15
  1.000000000000000E-004
  CAR 
 unknown system                          
     18.69077259    -54.82846821  301      4.78338287      1.00000000
    -54.828  0.0000E+00  0.0000E+00  0.0000E+00  0.0000E+00
    -54.583  0.0000E+00  0.0000E+00  0.0000E+00  0.0000E+00
    -54.338  0.0000E+00  0.0000E+00  0.0000E+00  0.0000E+00
    -54.093  0.0000E+00  0.0000E+00  0.0000E+00  0.0000E+00
    -53.848  0.0000E+00  0.0000E+00  0.0000E+00  0.0000E+00
    -53.603  0.0000E+00  0.0000E+00  0.0000E+00  0.0000E+00
    -53.358  0.0000E+00  0.0000E+00  0.0000E+00  0.0000E+00
    -53.113  0.0000E+00  0.0000E+00  0.0000E+00  0.0000E+00
    -52.868  0.0000E+00  0.0000E+00  0.0000E+00  0.0000E+00
    -52.623  0.0000E+00  0.0000E+00  0.0000E+00  0.0000E+00
    -52.378  0.0000E+00  0.0000E+00  0.0000E+00  0.0000E+00
    -52.133  0.0000E+00  0.0000E+00  0.0000E+00  0.0000E+00
    -51.888  0.0000E+00  0.0000E+00  0.0000E+00  0.0000E+00
    -51.643  0.7712E-04  0.0000E+00  0.1890E-04  0.0000E+00
    -51.398  0.1622E+02  0.0000E+00  0.3975E+01  0.0000E+00
    -51.153  0.1009E+00  0.0000E+00  0.4000E+01  0.0000E+00
    -50.907  0.0000E+00  0.0000E+00  0.4000E+01  0.0000E+00
    -50.662  0.0000E+00  0.0000E+00  0.4000E+01  0.0000E+00
    -50.417  0.0000E+00  0.0000E+00  0.4000E+01  0.0000E+00
    -50.172  0.2358E+00  0.0000E+00  0.4058E+01  0.0000E+00
    -49.927  0.3240E+02  0.0000E+00  0.1200E+02  0.0000E+00
    -49.682  0.5703E-02  0.0000E+00  0.1200E+02  0.0000E+00
    -49.437  0.0000E+00  0.0000E+00  0.1200E+02  0.0000E+00
    -49.192  0.0000E+00  0.0000E+00  0.1200E+02  0.0000E+00
    -48.947  0.0000E+00  0.0000E+00  0.1200E+02  0.0000E+00
    -48.702  0.0000E+00  0.0000E+00  0.1200E+02  0.0000E+00
    -48.457  0.0000E+00  0.0000E+00  0.1200E+02  0.0000E+00
    -48.212  0.0000E+00  0.0000E+00  0.1200E+02  0.0000E+00
    -47.967  0.0000E+00  0.0000E+00  0.1200E+02  0.0000E+00
    -47.722  0.0000E+00  0.0000E+00  0.1200E+02  0.0000E+00
    -47.477  0.0000E+00  0.0000E+00  0.1200E+02  0.0000E+00
    -47.231  0.0000E+00  0.0000E+00  0.1200E+02  0.0000E+00
    -46.986  0.0000E+00  0.3885E-10  0.1200E+02  0.9520E-11
    -46.741  0.0000E+00  0.8273E+01  0.1200E+02  0.2028E+01
    -46.496  0.0000E+00  0.8052E+01  0.1200E+02  0.4001E+01
    -46.251  0.0000E+00  0.3261E+02  0.1200E+02  0.1199E+02
    -46.006  0.0000E+00  0.3167E-01  0.1200E+02  0.1200E+02
    -45.761  0.0000E+00  0.0000E+00  0.1200E+02  0.1200E+02
    -45.516  0.0000E+00  0.0000E+00  0.1200E+02  0.1200E+02
    -45.271  0.0000E+00  0.0000E+00  0.1200E+02  0.1200E+02
    -45.026  0.0000E+00  0.0000E+00  0.1200E+02  0.1200E+02
    -44.781  0.0000E+00  0.0000E+00  0.1200E+02  0.1200E+02
    -44.536  0.0000E+00  0.0000E+00  0.1200E+02  0.1200E+02
    -44.291  0.0000E+00  0.0000E+00  0.1200E+02  0.1200E+02
    -44.046  0.0000E+00  0.0000E+00  0.1200E+02  0.1200E+02
    -43.801  0.0000E+00  0.0000E+00  0.1200E+02  0.1200E+02
    -43.556  0.0000E+00  0.0000E+00  0.1200E+02  0.1200E+02
    -43.310  0.0000E+00  0.0000E+00  0.1200E+02  0.1200E+02
    -43.065  0.0000E+00  0.0000E+00  0.1200E+02  0.1200E+02
    -42.820  0.0000E+00  0.0000E+00  0.1200E+02  0.1200E+02
    -42.575  0.0000E+00  0.0000E+00  0.1200E+02  0.1200E+02
    -42.330  0.0000E+00  0.0000E+00  0.1200E+02  0.1200E+02
    -42.085  0.0000E+00  0.0000E+00  0.1200E+02  0.1200E+02
    -41.840  0.0000E+00  0.0000E+00  0.1200E+02  0.1200E+02
    -41.595  0.0000E+00  0.0000E+00  0.1200E+02  0.1200E+02
    -41.350  0.0000E+00  0.0000E+00  0.1200E+02  0.1200E+02
    -41.105  0.0000E+00  0.0000E+00  0.1200E+02  0.1200E+02
    -40.860  0.0000E+00  0.0000E+00  0.1200E+02  0.1200E+02
    -40.615  0.1414E-13  0.1015E-13  0.1200E+02  0.1200E+02
    -40.370  0.2471E+01  0.2317E+01  0.1261E+02  0.1257E+02
    -40.125  0.3011E+02  0.3027E+02  0.1998E+02  0.1999E+02
    -39.880  0.6463E-01  0.5629E-01  0.2000E+02  0.2000E+02
    -39.634  0.0000E+00  0.0000E+00  0.2000E+02  0.2000E+02
    -39.389  0.0000E+00  0.0000E+00  0.2000E+02  0.2000E+02
    -39.144  0.0000E+00  0.0000E+00  0.2000E+02  0.2000E+02
    -38.899  0.0000E+00  0.0000E+00  0.2000E+02  0.2000E+02
    -38.654  0.0000E+00  0.0000E+00  0.2000E+02  0.2000E+02
    -38.409  0.0000E+00  0.0000E+00  0.2000E+02  0.2000E+02
    -38.164  0.0000E+00  0.0000E+00  0.2000E+02  0.2000E+02
    -37.919  0.0000E+00  0.0000E+00  0.2000E+02  0.2000E+02
    -37.674  0.0000E+00  0.0000E+00  0.2000E+02  0.2000E+02
    -37.429  0.0000E+00  0.0000E+00  0.2000E+02  0.2000E+02
    -37.184  0.0000E+00  0.0000E+00  0.2000E+02  0.2000E+02
    -36.939  0.0000E+00  0.0000E+00  0.2000E+02  0.2000E+02
    -36.694  0.0000E+00  0.0000E+00  0.2000E+02  0.2000E+02
    -36.449  0.0000E+00  0.0000E+00  0.2000E+02  0.2000E+02
    -36.204  0.0000E+00  0.0000E+00  0.2000E+02  0.2000E+02
    -35.959  0.0000E+00  0.0000E+00  0.2000E+02  0.2000E+02
    -35.713  0.0000E+00  0.0000E+00  0.2000E+02  0.2000E+02
    -35.468  0.0000E+00  0.0000E+00  0.2000E+02  0.2000E+02
    -35.223  0.0000E+00  0.0000E+00  0.2000E+02  0.2000E+02
    -34.978  0.0000E+00  0.0000E+00  0.2000E+02  0.2000E+02
    -34.733  0.0000E+00  0.0000E+00  0.2000E+02  0.2000E+02
    -34.488  0.0000E+00  0.0000E+00  0.2000E+02  0.2000E+02
    -34.243  0.0000E+00  0.0000E+00  0.2000E+02  0.2000E+02
    -33.998  0.0000E+00  0.0000E+00  0.2000E+02  0.2000E+02
    -33.753  0.0000E+00  0.0000E+00  0.2000E+02  0.2000E+02
    -33.508  0.0000E+00  0.0000E+00  0.2000E+02  0.2000E+02
    -33.263  0.0000E+00  0.0000E+00  0.2000E+02  0.2000E+02
    -33.018  0.0000E+00  0.0000E+00  0.2000E+02  0.2000E+02
    -32.773  0.0000E+00  0.0000E+00  0.2000E+02  0.2000E+02
    -32.528  0.0000E+00  0.0000E+00  0.2000E+02  0.2000E+02
    -32.283  0.0000E+00  0.0000E+00  0.2000E+02  0.2000E+02
    -32.038  0.0000E+00  0.0000E+00  0.2000E+02  0.2000E+02
    -31.792  0.0000E+00  0.0000E+00  0.2000E+02  0.2000E+02
    -31.547  0.0000E+00  0.0000E+00  0.2000E+02  0.2000E+02
    -31.302  0.0000E+00  0.0000E+00  0.2000E+02  0.2000E+02
    -31.057  0.0000E+00  0.0000E+00  0.2000E+02  0.2000E+02
    -30.812  0.0000E+00  0.0000E+00  0.2000E+02  0.2000E+02
    -30.567  0.0000E+00  0.0000E+00  0.2000E+02  0.2000E+02
    -30.322  0.0000E+00  0.0000E+00  0.2000E+02  0.2000E+02
    -30.077  0.0000E+00  0.0000E+00  0.2000E+02  0.2000E+02
    -29.832  0.0000E+00  0.0000E+00  0.2000E+02  0.2000E+02
    -29.587  0.0000E+00  0.0000E+00  0.2000E+02  0.2000E+02
    -29.342  0.0000E+00  0.0000E+00  0.2000E+02  0.2000E+02
    -29.097  0.0000E+00  0.0000E+00  0.2000E+02  0.2000E+02
    -28.852  0.0000E+00  0.0000E+00  0.2000E+02  0.2000E+02
    -28.607  0.0000E+00  0.0000E+00  0.2000E+02  0.2000E+02
    -28.362  0.0000E+00  0.0000E+00  0.2000E+02  0.2000E+02
    -28.116  0.0000E+00  0.0000E+00  0.2000E+02  0.2000E+02
    -27.871  0.0000E+00  0.0000E+00  0.2000E+02  0.2000E+02
    -27.626  0.0000E+00  0.0000E+00  0.2000E+02  0.2000E+02
    -27.381  0.0000E+00  0.0000E+00  0.2000E+02  0.2000E+02
    -27.136  0.0000E+00  0.0000E+00  0.2000E+02  0.2000E+02
    -26.891  0.0000E+00  0.0000E+00  0.2000E+02  0.2000E+02
    -26.646  0.0000E+00  0.0000E+00  0.2000E+02  0.2000E+02
    -26.401  0.0000E+00  0.0000E+00  0.2000E+02  0.2000E+02
    -26.156  0.0000E+00  0.0000E+00  0.2000E+02  0.2000E+02
    -25.911  0.0000E+00  0.0000E+00  0.2000E+02  0.2000E+02
    -25.666  0.0000E+00  0.0000E+00  0.2000E+02  0.2000E+02
    -25.421  0.0000E+00  0.0000E+00  0.2000E+02  0.2000E+02
    -25.176  0.0000E+00  0.0000E+00  0.2000E+02  0.2000E+02
    -24.931  0.0000E+00  0.0000E+00  0.2000E+02  0.2000E+02
    -24.686  0.0000E+00  0.0000E+00  0.2000E+02  0.2000E+02
    -24.441  0.0000E+00  0.0000E+00  0.2000E+02  0.2000E+02
    -24.195  0.0000E+00  0.0000E+00  0.2000E+02  0.2000E+02
    -23.950  0.0000E+00  0.0000E+00  0.2000E+02  0.2000E+02
    -23.705  0.0000E+00  0.0000E+00  0.2000E+02  0.2000E+02
    -23.460  0.0000E+00  0.0000E+00  0.2000E+02  0.2000E+02
    -23.215  0.0000E+00  0.0000E+00  0.2000E+02  0.2000E+02
    -22.970  0.0000E+00  0.0000E+00  0.2000E+02  0.2000E+02
    -22.725  0.0000E+00  0.0000E+00  0.2000E+02  0.2000E+02
    -22.480  0.0000E+00  0.0000E+00  0.2000E+02  0.2000E+02
    -22.235  0.0000E+00  0.0000E+00  0.2000E+02  0.2000E+02
    -21.990  0.0000E+00  0.0000E+00  0.2000E+02  0.2000E+02
    -21.745  0.0000E+00  0.0000E+00  0.2000E+02  0.2000E+02
    -21.500  0.0000E+00  0.0000E+00  0.2000E+02  0.2000E+02
    -21.255  0.0000E+00  0.0000E+00  0.2000E+02  0.2000E+02
    -21.010  0.0000E+00  0.0000E+00  0.2000E+02  0.2000E+02
    -20.765  0.0000E+00  0.0000E+00  0.2000E+02  0.2000E+02
    -20.519  0.0000E+00  0.0000E+00  0.2000E+02  0.2000E+02
    -20.274  0.0000E+00  0.0000E+00  0.2000E+02  0.2000E+02
    -20.029  0.0000E+00  0.0000E+00  0.2000E+02  0.2000E+02
    -19.784  0.0000E+00  0.0000E+00  0.2000E+02  0.2000E+02
    -19.539  0.0000E+00  0.0000E+00  0.2000E+02  0.2000E+02
    -19.294  0.0000E+00  0.0000E+00  0.2000E+02  0.2000E+02
    -19.049  0.0000E+00  0.0000E+00  0.2000E+02  0.2000E+02
    -18.804  0.0000E+00  0.0000E+00  0.2000E+02  0.2000E+02
    -18.559  0.0000E+00  0.0000E+00  0.2000E+02  0.2000E+02
    -18.314  0.0000E+00  0.0000E+00  0.2000E+02  0.2000E+02
    -18.069  0.0000E+00  0.0000E+00  0.2000E+02  0.2000E+02
    -17.824  0.0000E+00  0.0000E+00  0.2000E+02  0.2000E+02
    -17.579  0.0000E+00  0.0000E+00  0.2000E+02  0.2000E+02
    -17.334  0.0000E+00  0.0000E+00  0.2000E+02  0.2000E+02
    -17.089  0.0000E+00  0.0000E+00  0.2000E+02  0.2000E+02
    -16.844  0.0000E+00  0.0000E+00  0.2000E+02  0.2000E+02
    -16.598  0.0000E+00  0.0000E+00  0.2000E+02  0.2000E+02
    -16.353  0.0000E+00  0.0000E+00  0.2000E+02  0.2000E+02
    -16.108  0.0000E+00  0.0000E+00  0.2000E+02  0.2000E+02
    -15.863  0.0000E+00  0.0000E+00  0.2000E+02  0.2000E+02
    -15.618  0.0000E+00  0.0000E+00  0.2000E+02  0.2000E+02
    -15.373  0.0000E+00  0.0000E+00  0.2000E+02  0.2000E+02
    -15.128  0.0000E+00  0.0000E+00  0.2000E+02  0.2000E+02
    -14.883  0.0000E+00  0.0000E+00  0.2000E+02  0.2000E+02
    -14.638  0.0000E+00  0.0000E+00  0.2000E+02  0.2000E+02
    -14.393  0.0000E+00  0.0000E+00  0.2000E+02  0.2000E+02
    -14.148  0.0000E+00  0.0000E+00  0.2000E+02  0.2000E+02
    -13.903  0.0000E+00  0.0000E+00  0.2000E+02  0.2000E+02
    -13.658  0.2894E-04  0.0000E+00  0.2000E+02  0.2000E+02
    -13.413  0.5922E+01  0.3355E-09  0.2145E+02  0.2000E+02
    -13.168  0.9464E+01  0.2864E+01  0.2377E+02  0.2070E+02
    -12.923  0.9363E+00  0.1305E+02  0.2400E+02  0.2390E+02
    -12.677  0.0000E+00  0.4041E+00  0.2400E+02  0.2400E+02
    -12.432  0.0000E+00  0.0000E+00  0.2400E+02  0.2400E+02
    -12.187  0.0000E+00  0.0000E+00  0.2400E+02  0.2400E+02
    -11.942  0.0000E+00  0.0000E+00  0.2400E+02  0.2400E+02
    -11.697  0.0000E+00  0.0000E+00  0.2400E+02  0.2400E+02
    -11.452  0.0000E+00  0.0000E+00  0.2400E+02  0.2400E+02
    -11.207  0.0000E+00  0.0000E+00  0.2400E+02  0.2400E+02
    -10.962  0.0000E+00  0.0000E+00  0.2400E+02  0.2400E+02
    -10.717  0.0000E+00  0.0000E+00  0.2400E+02  0.2400E+02
    -10.472  0.0000E+00  0.0000E+00  0.2400E+02  0.2400E+02
    -10.227  0.0000E+00  0.0000E+00  0.2400E+02  0.2400E+02
     -9.982  0.0000E+00  0.0000E+00  0.2400E+02  0.2400E+02
     -9.737  0.0000E+00  0.0000E+00  0.2400E+02  0.2400E+02
     -9.492  0.0000E+00  0.0000E+00  0.2400E+02  0.2400E+02
     -9.247  0.0000E+00  0.0000E+00  0.2400E+02  0.2400E+02
     -9.001  0.0000E+00  0.0000E+00  0.2400E+02  0.2400E+02
     -8.756  0.0000E+00  0.0000E+00  0.2400E+02  0.2400E+02
     -8.511  0.0000E+00  0.0000E+00  0.2400E+02  0.2400E+02
     -8.266  0.0000E+00  0.0000E+00  0.2400E+02  0.2400E+02
     -8.021  0.0000E+00  0.0000E+00  0.2400E+02  0.2400E+02
     -7.776  0.3110E-05  0.0000E+00  0.2400E+02  0.2400E+02
     -7.531  0.1522E+01  0.4329E-03  0.2437E+02  0.2400E+02
     -7.286  0.7437E+01  0.3753E+01  0.2620E+02  0.2492E+02
     -7.041  0.6866E+01  0.8068E+01  0.2788E+02  0.2690E+02
     -6.796  0.4974E+00  0.4276E+01  0.2800E+02  0.2794E+02
     -6.551  0.0000E+00  0.2252E+00  0.2800E+02  0.2800E+02
     -6.306  0.0000E+00  0.0000E+00  0.2800E+02  0.2800E+02
     -6.061  0.0000E+00  0.0000E+00  0.2800E+02  0.2800E+02
     -5.816  0.0000E+00  0.0000E+00  0.2800E+02  0.2800E+02
     -5.571  0.0000E+00  0.0000E+00  0.2800E+02  0.2800E+02
     -5.326  0.0000E+00  0.0000E+00  0.2800E+02  0.2800E+02
     -5.080  0.0000E+00  0.0000E+00  0.2800E+02  0.2800E+02
     -4.835  0.0000E+00  0.0000E+00  0.2800E+02  0.2800E+02
     -4.590  0.0000E+00  0.0000E+00  0.2800E+02  0.2800E+02
     -4.345  0.0000E+00  0.0000E+00  0.2800E+02  0.2800E+02
     -4.100  0.0000E+00  0.0000E+00  0.2800E+02  0.2800E+02
     -3.855  0.0000E+00  0.0000E+00  0.2800E+02  0.2800E+02
     -3.610  0.0000E+00  0.0000E+00  0.2800E+02  0.2800E+02
     -3.365  0.0000E+00  0.0000E+00  0.2800E+02  0.2800E+02
     -3.120  0.0000E+00  0.0000E+00  0.2800E+02  0.2800E+02
     -2.875  0.0000E+00  0.0000E+00  0.2800E+02  0.2800E+02
     -2.630  0.2154E-01  0.0000E+00  0.2801E+02  0.2800E+02
     -2.385  0.3611E+01  0.0000E+00  0.2889E+02  0.2800E+02
     -2.140  0.1264E+01  0.0000E+00  0.2920E+02  0.2800E+02
     -1.895  0.3082E+01  0.0000E+00  0.2996E+02  0.2800E+02
     -1.650  0.1820E+00  0.0000E+00  0.3000E+02  0.2800E+02
     -1.404  0.6317E+00  0.0000E+00  0.3015E+02  0.2800E+02
     -1.159  0.1024E+02  0.3922E-06  0.3267E+02  0.2800E+02
     -0.914  0.8155E+01  0.5815E+00  0.3466E+02  0.2814E+02
     -0.669  0.8742E+01  0.4290E+01  0.3681E+02  0.2919E+02
     -0.424  0.1026E+02  0.2496E+01  0.3932E+02  0.2981E+02
     -0.179  0.1307E+02  0.1532E+01  0.4252E+02  0.3018E+02
      0.066  0.9338E+01  0.2642E+01  0.4481E+02  0.3083E+02
      0.311  0.6187E+01  0.4201E+01  0.4633E+02  0.3186E+02
      0.556  0.6175E+01  0.1055E+02  0.4784E+02  0.3444E+02
      0.801  0.5375E+01  0.8618E+01  0.4916E+02  0.3655E+02
      1.046  0.7165E+01  0.9441E+01  0.5091E+02  0.3887E+02
      1.291  0.9664E+01  0.5250E+01  0.5328E+02  0.4016E+02
      1.536  0.1129E+02  0.3677E+01  0.5605E+02  0.4106E+02
      1.781  0.5535E+01  0.6514E+01  0.5741E+02  0.4265E+02
      2.026  0.4509E+01  0.5794E+01  0.5851E+02  0.4407E+02
      2.271  0.6671E+01  0.4166E+01  0.6015E+02  0.4509E+02
      2.517  0.5021E+01  0.5329E+01  0.6138E+02  0.4640E+02
      2.762  0.7373E+01  0.8295E+01  0.6318E+02  0.4843E+02
      3.007  0.6478E+01  0.1060E+02  0.6477E+02  0.5103E+02
      3.252  0.7222E+01  0.3730E+01  0.6654E+02  0.5194E+02
      3.497  0.5283E+01  0.2803E+01  0.6784E+02  0.5263E+02
      3.742  0.7340E+01  0.5976E+01  0.6964E+02  0.5409E+02
      3.987  0.4617E+01  0.6796E+01  0.7077E+02  0.5576E+02
      4.232  0.2896E+01  0.9804E+00  0.7148E+02  0.5600E+02
      4.477  0.1972E+01  0.7507E-05  0.7196E+02  0.5600E+02
      4.722  0.1646E+00  0.0000E+00  0.7200E+02  0.5600E+02
      4.967  0.0000E+00  0.0000E+00  0.7200E+02  0.5600E+02
      5.212  0.0000E+00  0.0000E+00  0.7200E+02  0.5600E+02
      5.457  0.0000E+00  0.0000E+00  0.7200E+02  0.5600E+02
      5.702  0.0000E+00  0.0000E+00  0.7200E+02  0.5600E+02
      5.947  0.0000E+00  0.0000E+00  0.7200E+02  0.5600E+02
      6.193  0.0000E+00  0.0000E+00  0.7200E+02  0.5600E+02
      6.438  0.0000E+00  0.5579E-06  0.7200E+02  0.5600E+02
      6.683  0.0000E+00  0.1502E+01  0.7200E+02  0.5637E+02
      6.928  0.4657E-08  0.8890E+01  0.7200E+02  0.5855E+02
      7.173  0.3919E-01  0.9304E+01  0.7201E+02  0.6083E+02
      7.418  0.1611E-02  0.6896E+01  0.7201E+02  0.6252E+02
      7.663  0.2386E+00  0.8241E+01  0.7207E+02  0.6454E+02
      7.908  0.3104E-01  0.1092E+02  0.7208E+02  0.6721E+02
      8.153  0.9628E+00  0.1047E+02  0.7231E+02  0.6978E+02
      8.398  0.1234E+01  0.5955E+01  0.7261E+02  0.7124E+02
      8.643  0.2238E+01  0.3171E+01  0.7316E+02  0.7201E+02
      8.888  0.3067E+01  0.7243E+00  0.7391E+02  0.7219E+02
      9.133  0.3591E+01  0.8976E+00  0.7479E+02  0.7241E+02
      9.378  0.4423E+01  0.2618E+01  0.7588E+02  0.7305E+02
      9.623  0.2553E+01  0.3069E+01  0.7650E+02  0.7381E+02
      9.868  0.4158E+01  0.4215E+01  0.7752E+02  0.7484E+02
     10.114  0.1854E+01  0.4917E+01  0.7798E+02  0.7604E+02
     10.359  0.2953E+01  0.4595E+01  0.7870E+02  0.7717E+02
     10.604  0.4811E+01  0.2821E+01  0.7988E+02  0.7786E+02
     10.849  0.5537E+01  0.3723E+01  0.8124E+02  0.7877E+02
     11.094  0.4756E+01  0.4229E+01  0.8240E+02  0.7981E+02
     11.339  0.5764E+01  0.3872E+01  0.8382E+02  0.8076E+02
     11.584  0.4064E+01  0.3196E+01  0.8481E+02  0.8154E+02
     11.829  0.5378E+01  0.6578E+01  0.8613E+02  0.8315E+02
     12.074  0.5176E+01  0.6105E+01  0.8740E+02  0.8465E+02
     12.319  0.3811E+01  0.7153E+01  0.8833E+02  0.8640E+02
     12.564  0.4314E+01  0.4104E+01  0.8939E+02  0.8741E+02
     12.809  0.3707E+01  0.4028E+01  0.9030E+02  0.8840E+02
     13.054  0.4257E+01  0.4214E+01  0.9134E+02  0.8943E+02
     13.299  0.3567E+01  0.3717E+01  0.9221E+02  0.9034E+02
     13.544  0.4267E+01  0.5022E+01  0.9326E+02  0.9157E+02
     13.789  0.4917E+01  0.4390E+01  0.9446E+02  0.9265E+02
     14.035  0.3076E+01  0.4794E+01  0.9522E+02  0.9382E+02
     14.280  0.1539E+01  0.3803E+01  0.9560E+02  0.9475E+02
     14.525  0.1118E+01  0.2846E+01  0.9587E+02  0.9545E+02
     14.770  0.2849E+00  0.8694E+00  0.9594E+02  0.9566E+02
     15.015  0.2463E+00  0.1034E+01  0.9600E+02  0.9592E+02
     15.260  0.1298E-03  0.1719E+00  0.9600E+02  0.9596E+02
     15.505  0.0000E+00  0.1695E+00  0.9600E+02  0.9600E+02
     15.750  0.0000E+00  0.0000E+00  0.9600E+02  0.9600E+02
     15.995  0.0000E+00  0.0000E+00  0.9600E+02  0.9600E+02
     16.240  0.0000E+00  0.0000E+00  0.9600E+02  0.9600E+02
     16.485  0.0000E+00  0.0000E+00  0.9600E+02  0.9600E+02
     16.730  0.0000E+00  0.0000E+00  0.9600E+02  0.9600E+02
     16.975  0.0000E+00  0.0000E+00  0.9600E+02  0.9600E+02
     17.220  0.0000E+00  0.0000E+00  0.9600E+02  0.9600E+02
     17.465  0.0000E+00  0.0000E+00  0.9600E+02  0.9600E+02
     17.711  0.0000E+00  0.0000E+00  0.9600E+02  0.9600E+02
     17.956  0.0000E+00  0.0000E+00  0.9600E+02  0.9600E+02
     18.201  0.0000E+00  0.0000E+00  0.9600E+02  0.9600E+02
     18.446  0.0000E+00  0.0000E+00  0.9600E+02  0.9600E+02
     18.691  0.0000E+00  0.0000E+00  0.9600E+02  0.9600E+02
