   20   20    1    2
  0.1218736E+02  0.7712411E-09  0.5605121E-09  0.5638513E-09  0.5000000E-15
  1.000000000000000E-004
  CAR 
 unknown system                          
    128     51     96
 
  0.0000000E+00  0.0000000E+00  0.0000000E+00  0.1000000E-01
    1      -51.486664    -46.743066   1.000000   1.000000
    2      -51.486599    -46.742927   1.000000   1.000000
    3      -51.485401    -46.740904   1.000000   1.000000
    4      -51.485394    -46.740893   1.000000   1.000000
    5      -50.095092    -46.367407   1.000000   1.000000
    6      -50.095021    -46.367303   1.000000   1.000000
    7      -50.094551    -46.366661   1.000000   1.000000
    8      -50.094530    -46.366631   1.000000   1.000000
    9      -50.047184    -46.357037   1.000000   1.000000
   10      -50.046997    -46.356747   1.000000   1.000000
   11      -50.046978    -46.356725   1.000000   1.000000
   12      -50.046968    -46.356676   1.000000   1.000000
   13      -40.336131    -40.334744   1.000000   1.000000
   14      -40.332995    -40.331546   1.000000   1.000000
   15      -40.332044    -40.330589   1.000000   1.000000
   16      -40.331994    -40.330540   1.000000   1.000000
   17      -40.219463    -40.221109   1.000000   1.000000
   18      -40.218967    -40.220575   1.000000   1.000000
   19      -40.218033    -40.219707   1.000000   1.000000
   20      -40.217627    -40.219237   1.000000   1.000000
   21      -13.504495    -13.182684   1.000000   1.000000
   22      -13.474918    -13.156245   1.000000   1.000000
   23      -13.229668    -13.011864   1.000000   1.000000
   24      -13.178873    -12.960792   1.000000   1.000000
   25       -7.640930     -7.439880   1.000000   1.000000
   26       -7.344624     -7.207393   1.000000   1.000000
   27       -7.178550     -7.034144   1.000000   1.000000
   28       -6.977920     -6.746814   1.000000   1.000000
   29       -2.558306     -1.006837   1.000000   1.000000
   30       -2.546666     -0.993525   1.000000   1.000000
   31       -1.415535      0.348825   1.000000   1.000000
   32       -1.409161      0.421459   1.000000   1.000000
   33       -1.195833      0.430507   1.000000   1.000000
   34       -1.141528      0.453443   1.000000   1.000000
   35       -0.971440      0.469002   1.000000   1.000000
   36       -0.430013      0.719555   1.000000   1.000000
   37       -0.412566      0.919889   1.000000   1.000000
   38       -0.320112      1.007153   1.000000   1.000000
   39       -0.285751      1.102894   1.000000   1.000000
   40       -0.267176      1.126467   1.000000   1.000000
   41       -0.079180      1.251209   1.000000   1.000000
   42       -0.077006      1.297883   1.000000   1.000000
   43       -0.057308      1.348457   1.000000   1.000000
   44        0.053836      1.425096   1.000000   1.000000
   45        0.174365      2.190006   1.000000   1.000000
   46        0.296629      2.292075   1.000000   1.000000
   47        0.319660      2.662194   1.000000   1.000000
   48        0.550451      2.736809   1.000000   1.000000
   49        0.612546      2.981724   1.000000   1.000000
   50        0.842280      3.025090   1.000000   1.000000
   51        0.866923      3.216339   1.000000   1.000000
   52        0.939701      3.393196   1.000000   1.000000
   53        0.955227      3.418146   1.000000   1.000000
   54        1.075259      3.523757   1.000000   1.000000
   55        1.226185      3.641618   1.000000   1.000000
   56        1.232995      4.106050   1.000000   1.000000
   57        1.251047      6.588953   1.000000   0.000000
   58        1.430295      6.797051   1.000000   0.000000
   59        1.441406      6.895250   1.000000   0.000000
   60        2.173437      6.939442   1.000000   0.000000
   61        2.251182      7.002295   1.000000   0.000000
   62        2.404059      7.379624   1.000000   0.000000
   63        2.405396      7.389952   1.000000   0.000000
   64        2.465728      7.416553   1.000000   0.000000
   65        3.392036      7.811017   1.000000   0.000000
   66        3.463865      7.888023   1.000000   0.000000
   67        3.561169      7.943849   1.000000   0.000000
   68        3.655224      8.103993   1.000000   0.000000
   69        3.738079      8.122193   1.000000   0.000000
   70        4.116016      8.203704   1.000000   0.000000
   71        4.158773      8.323764   1.000000   0.000000
   72        4.305135      8.332461   1.000000   0.000000
   73        7.110647      8.835571   0.000000   0.000000
   74        8.431690      9.200492   0.000000   0.000000
   75        8.873331      9.377509   0.000000   0.000000
   76        9.097661      9.409412   0.000000   0.000000
   77        9.201311      9.645936   0.000000   0.000000
   78        9.843740     10.023839   0.000000   0.000000
   79       10.133705     10.546635   0.000000   0.000000
   80       10.581354     11.068540   0.000000   0.000000
   81       10.693211     11.546896   0.000000   0.000000
   82       10.756600     11.574076   0.000000   0.000000
   83       11.208941     11.694071   0.000000   0.000000
   84       11.280012     12.067523   0.000000   0.000000
   85       11.395078     12.098711   0.000000   0.000000
   86       11.528779     12.156161   0.000000   0.000000
   87       12.605634     13.080485   0.000000   0.000000
   88       13.113364     13.425828   0.000000   0.000000
   89       13.430514     13.576560   0.000000   0.000000
   90       13.503477     13.712762   0.000000   0.000000
   91       13.679217     13.956464   0.000000   0.000000
   92       14.101670     14.413808   0.000000   0.000000
   93       14.243213     14.583417   0.000000   0.000000
   94       14.490825     14.854126   0.000000   0.000000
   95       14.719445     15.208024   0.000000   0.000000
   96       14.903734     15.216566   0.000000   0.000000
 
  0.2500000E+00  0.0000000E+00  0.0000000E+00  0.2000000E-01
    1      -51.486654    -46.743047   1.000000   1.000000
    2      -51.486616    -46.742953   1.000000   1.000000
    3      -51.485399    -46.740902   1.000000   1.000000
    4      -51.485397    -46.740896   1.000000   1.000000
    5      -50.095082    -46.367393   1.000000   1.000000
    6      -50.095039    -46.367324   1.000000   1.000000
    7      -50.094547    -46.366653   1.000000   1.000000
    8      -50.094537    -46.366633   1.000000   1.000000
    9      -50.047180    -46.357015   1.000000   1.000000
   10      -50.047052    -46.356819   1.000000   1.000000
   11      -50.046983    -46.356722   1.000000   1.000000
   12      -50.046952    -46.356674   1.000000   1.000000
   13      -40.335699    -40.334304   1.000000   1.000000
   14      -40.333469    -40.332030   1.000000   1.000000
   15      -40.332019    -40.330564   1.000000   1.000000
   16      -40.332018    -40.330562   1.000000   1.000000
   17      -40.219186    -40.220827   1.000000   1.000000
   18      -40.218860    -40.220478   1.000000   1.000000
   19      -40.218190    -40.219854   1.000000   1.000000
   20      -40.217870    -40.219485   1.000000   1.000000
   21      -13.500138    -13.178777   1.000000   1.000000
   22      -13.479229    -13.160086   1.000000   1.000000
   23      -13.222274    -13.004431   1.000000   1.000000
   24      -13.186370    -12.968331   1.000000   1.000000
   25       -7.601596     -7.408551   1.000000   1.000000
   26       -7.392597     -7.244437   1.000000   1.000000
   27       -7.150499     -6.994992   1.000000   1.000000
   28       -7.008742     -6.792141   1.000000   1.000000
   29       -2.555059     -0.977307   1.000000   1.000000
   30       -2.546818     -0.966399   1.000000   1.000000
   31       -1.386343      0.326157   1.000000   1.000000
   32       -1.382151      0.333564   1.000000   1.000000
   33       -1.188232      0.472063   1.000000   1.000000
   34       -1.149858      0.492064   1.000000   1.000000
   35       -0.805447      0.498729   1.000000   1.000000
   36       -0.406331      0.709428   1.000000   1.000000
   37       -0.389920      0.881236   1.000000   1.000000
   38       -0.318483      0.979141   1.000000   1.000000
   39       -0.298626      1.074049   1.000000   1.000000
   40       -0.280390      1.198271   1.000000   1.000000
   41       -0.177633      1.291247   1.000000   1.000000
   42       -0.142020      1.329994   1.000000   1.000000
   43       -0.107219      1.341441   1.000000   1.000000
   44       -0.038932      1.610220   1.000000   1.000000
   45        0.067517      2.290024   1.000000   1.000000
   46        0.194841      2.330817   1.000000   1.000000
   47        0.323238      2.642174   1.000000   1.000000
   48        0.414453      2.682718   1.000000   1.000000
   49        0.656458      2.779523   1.000000   1.000000
   50        0.795772      2.844035   1.000000   1.000000
   51        0.832742      3.293081   1.000000   1.000000
   52        0.879389      3.325335   1.000000   1.000000
   53        1.136700      3.400750   1.000000   1.000000
   54        1.197680      3.419173   1.000000   1.000000
   55        1.289679      3.662935   1.000000   1.000000
   56        1.351417      3.913817   1.000000   1.000000
   57        1.424669      6.884245   1.000000   0.000000
   58        1.439452      6.891822   1.000000   0.000000
   59        1.540819      6.925856   1.000000   0.000000
   60        2.280316      6.957695   1.000000   0.000000
   61        2.286304      6.986979   1.000000   0.000000
   62        2.440227      7.359921   1.000000   0.000000
   63        2.558635      7.436871   1.000000   0.000000
   64        2.559011      7.465154   1.000000   0.000000
   65        3.210822      7.786485   1.000000   0.000000
   66        3.334890      7.812936   1.000000   0.000000
   67        3.385801      7.957745   1.000000   0.000000
   68        3.693148      7.966188   1.000000   0.000000
   69        3.744743      7.988444   1.000000   0.000000
   70        3.767621      8.162483   1.000000   0.000000
   71        3.978495      8.261224   1.000000   0.000000
   72        4.003527      8.532126   1.000000   0.000000
   73        7.597277      8.551795   0.000000   0.000000
   74        8.785185      9.433704   0.000000   0.000000
   75        9.226300      9.545545   0.000000   0.000000
   76        9.281953      9.645273   0.000000   0.000000
   77        9.308563      9.826268   0.000000   0.000000
   78        9.641901     10.017404   0.000000   0.000000
   79       10.295630     10.806426   0.000000   0.000000
   80       10.519338     11.180999   0.000000   0.000000
   81       10.649706     11.293316   0.000000   0.000000
   82       10.819974     11.632346   0.000000   0.000000
   83       10.899918     11.973554   0.000000   0.000000
   84       11.257420     12.048607   0.000000   0.000000
   85       11.576585     12.049801   0.000000   0.000000
   86       11.696099     12.088952   0.000000   0.000000
   87       12.488915     12.969282   0.000000   0.000000
   88       12.823999     13.193326   0.000000   0.000000
   89       13.506127     13.731660   0.000000   0.000000
   90       13.556705     13.811600   0.000000   0.000000
   91       13.719692     14.270994   0.000000   0.000000
   92       13.875134     14.303401   0.000000   0.000000
   93       13.989120     14.439366   0.000000   0.000000
   94       14.014326     14.467379   0.000000   0.000000
   95       14.128295     14.500282   0.000000   0.000000
   96       14.578325     14.923641   0.000000   0.000000
 
  0.5000000E+00  0.0000000E+00  0.0000000E+00  0.1000000E-01
    1      -51.486634    -46.743001   1.000000   1.000000
    2      -51.486634    -46.743001   1.000000   1.000000
    3      -51.485406    -46.740905   1.000000   1.000000
    4      -51.485406    -46.740905   1.000000   1.000000
    5      -50.095060    -46.367362   1.000000   1.000000
    6      -50.095060    -46.367362   1.000000   1.000000
    7      -50.094550    -46.366648   1.000000   1.000000
    8      -50.094550    -46.366648   1.000000   1.000000
    9      -50.047126    -46.356919   1.000000   1.000000
   10      -50.047126    -46.356919   1.000000   1.000000
   11      -50.046956    -46.356691   1.000000   1.000000
   12      -50.046956    -46.356691   1.000000   1.000000
   13      -40.334591    -40.333174   1.000000   1.000000
   14      -40.334591    -40.333174   1.000000   1.000000
   15      -40.332011    -40.330556   1.000000   1.000000
   16      -40.332011    -40.330556   1.000000   1.000000
   17      -40.218529    -40.220171   1.000000   1.000000
   18      -40.218529    -40.220171   1.000000   1.000000
   19      -40.218511    -40.220139   1.000000   1.000000
   20      -40.218511    -40.220139   1.000000   1.000000
   21      -13.489644    -13.169379   1.000000   1.000000
   22      -13.489644    -13.169379   1.000000   1.000000
   23      -13.204370    -12.986431   1.000000   1.000000
   24      -13.204370    -12.986431   1.000000   1.000000
   25       -7.501387     -7.329343   1.000000   1.000000
   26       -7.501387     -7.329343   1.000000   1.000000
   27       -7.080978     -6.896612   1.000000   1.000000
   28       -7.080978     -6.896612   1.000000   1.000000
   29       -2.549401     -0.940594   1.000000   1.000000
   30       -2.549401     -0.940594   1.000000   1.000000
   31       -1.352872      0.236538   1.000000   1.000000
   32       -1.352872      0.236538   1.000000   1.000000
   33       -1.169381      0.543851   1.000000   1.000000
   34       -1.169381      0.543851   1.000000   1.000000
   35       -0.398797      0.652649   1.000000   1.000000
   36       -0.398797      0.652649   1.000000   1.000000
   37       -0.356928      0.852894   1.000000   1.000000
   38       -0.356928      0.852894   1.000000   1.000000
   39       -0.355839      1.114165   1.000000   1.000000
   40       -0.355839      1.114165   1.000000   1.000000
   41       -0.266176      1.355273   1.000000   1.000000
   42       -0.266176      1.355273   1.000000   1.000000
   43       -0.114258      1.930330   1.000000   1.000000
   44       -0.114258      1.930330   1.000000   1.000000
   45       -0.083138      1.973137   1.000000   1.000000
   46       -0.083138      1.973137   1.000000   1.000000
   47        0.472119      2.434390   1.000000   1.000000
   48        0.472119      2.434390   1.000000   1.000000
   49        0.751973      2.959796   1.000000   1.000000
   50        0.751973      2.959796   1.000000   1.000000
   51        0.770129      3.252917   1.000000   1.000000
   52        0.770129      3.252917   1.000000   1.000000
   53        1.184512      3.357264   1.000000   1.000000
   54        1.184512      3.357264   1.000000   1.000000
   55        1.365867      3.736495   1.000000   1.000000
   56        1.365867      3.736495   1.000000   1.000000
   57        1.433429      6.895715   1.000000   0.000000
   58        1.433429      6.895715   1.000000   0.000000
   59        2.367242      7.019923   1.000000   0.000000
   60        2.367242      7.019923   1.000000   0.000000
   61        2.506002      7.254482   1.000000   0.000000
   62        2.506002      7.254482   1.000000   0.000000
   63        2.642709      7.521086   1.000000   0.000000
   64        2.642709      7.521086   1.000000   0.000000
   65        2.752939      7.747157   1.000000   0.000000
   66        2.752939      7.747157   1.000000   0.000000
   67        3.423865      7.822947   1.000000   0.000000
   68        3.423865      7.822947   1.000000   0.000000
   69        3.738225      8.008884   1.000000   0.000000
   70        3.738225      8.008884   1.000000   0.000000
   71        3.809784      8.330747   1.000000   0.000000
   72        3.809784      8.330747   1.000000   0.000000
   73        8.375672      9.092362   0.000000   0.000000
   74        8.375672      9.092362   0.000000   0.000000
   75        9.347568      9.582418   0.000000   0.000000
   76        9.347568      9.582418   0.000000   0.000000
   77        9.914740     10.316965   0.000000   0.000000
   78        9.914740     10.316965   0.000000   0.000000
   79       10.395858     11.242116   0.000000   0.000000
   80       10.395858     11.242116   0.000000   0.000000
   81       10.913084     11.567041   0.000000   0.000000
   82       10.913084     11.567041   0.000000   0.000000
   83       11.039768     11.834800   0.000000   0.000000
   84       11.039768     11.834800   0.000000   0.000000
   85       11.764988     12.318996   0.000000   0.000000
   86       11.764988     12.318996   0.000000   0.000000
   87       12.375633     12.891687   0.000000   0.000000
   88       12.375633     12.891687   0.000000   0.000000
   89       12.602569     13.219163   0.000000   0.000000
   90       12.602569     13.219163   0.000000   0.000000
   91       13.622024     13.971720   0.000000   0.000000
   92       13.622024     13.971720   0.000000   0.000000
   93       13.928327     14.160621   0.000000   0.000000
   94       13.928327     14.160621   0.000000   0.000000
   95       14.768026     14.922945   0.000000   0.000000
   96       14.768026     14.922945   0.000000   0.000000
 
  0.0000000E+00  0.2000000E+00  0.0000000E+00  0.2000000E-01
    1      -51.486542    -46.742864   1.000000   1.000000
    2      -51.486491    -46.742746   1.000000   1.000000
    3      -51.485521    -46.741108   1.000000   1.000000
    4      -51.485518    -46.741108   1.000000   1.000000
    5      -50.095038    -46.367340   1.000000   1.000000
    6      -50.094983    -46.367254   1.000000   1.000000
    7      -50.094603    -46.366731   1.000000   1.000000
    8      -50.094591    -46.366710   1.000000   1.000000
    9      -50.047173    -46.357007   1.000000   1.000000
   10      -50.047005    -46.356752   1.000000   1.000000
   11      -50.046985    -46.356732   1.000000   1.000000
   12      -50.046983    -46.356706   1.000000   1.000000
   13      -40.335713    -40.334311   1.000000   1.000000
   14      -40.332877    -40.331420   1.000000   1.000000
   15      -40.332370    -40.330912   1.000000   1.000000
   16      -40.332127    -40.330664   1.000000   1.000000
   17      -40.219315    -40.220964   1.000000   1.000000
   18      -40.218820    -40.220431   1.000000   1.000000
   19      -40.218186    -40.219858   1.000000   1.000000
   20      -40.217769    -40.219381   1.000000   1.000000
   21      -13.479551    -13.166608   1.000000   1.000000
   22      -13.447177    -13.136722   1.000000   1.000000
   23      -13.257309    -13.028413   1.000000   1.000000
   24      -13.207596    -12.978443   1.000000   1.000000
   25       -7.614414     -7.421351   1.000000   1.000000
   26       -7.311331     -7.166448   1.000000   1.000000
   27       -7.246315     -7.098652   1.000000   1.000000
   28       -7.014568     -6.793960   1.000000   1.000000
   29       -2.403455     -0.926292   1.000000   1.000000
   30       -2.378202     -0.747195   1.000000   1.000000
   31       -1.335422      0.025102   1.000000   1.000000
   32       -1.297118      0.338512   1.000000   1.000000
   33       -1.195163      0.398682   1.000000   1.000000
   34       -1.130486      0.458670   1.000000   1.000000
   35       -0.956056      0.537647   1.000000   1.000000
   36       -0.566356      0.709438   1.000000   1.000000
   37       -0.560509      0.767823   1.000000   1.000000
   38       -0.471483      0.993437   1.000000   1.000000
   39       -0.465571      1.105653   1.000000   1.000000
   40       -0.453347      1.109415   1.000000   1.000000
   41       -0.291866      1.286332   1.000000   1.000000
   42       -0.205624      1.339375   1.000000   1.000000
   43       -0.161526      1.423653   1.000000   1.000000
   44       -0.072818      1.979361   1.000000   1.000000
   45       -0.024619      2.123985   1.000000   1.000000
   46        0.187771      2.286485   1.000000   1.000000
   47        0.390356      2.523349   1.000000   1.000000
   48        0.665379      2.816493   1.000000   1.000000
   49        0.699734      2.888696   1.000000   1.000000
   50        0.762279      3.026959   1.000000   1.000000
   51        0.932038      3.029306   1.000000   1.000000
   52        1.077594      3.138214   1.000000   1.000000
   53        1.197277      3.391724   1.000000   1.000000
   54        1.243524      3.691775   1.000000   1.000000
   55        1.335264      3.703691   1.000000   1.000000
   56        1.364239      4.015134   1.000000   1.000000
   57        1.440195      6.665819   1.000000   0.000000
   58        1.486861      6.925542   1.000000   0.000000
   59        1.629072      6.950421   1.000000   0.000000
   60        2.187227      7.019464   1.000000   0.000000
   61        2.309385      7.026442   1.000000   0.000000
   62        2.540650      7.127838   1.000000   0.000000
   63        2.593886      7.319510   1.000000   0.000000
   64        2.649682      7.551656   1.000000   0.000000
   65        3.063676      7.685903   1.000000   0.000000
   66        3.294410      7.850366   1.000000   0.000000
   67        3.420420      8.006474   1.000000   0.000000
   68        3.626260      8.051267   1.000000   0.000000
   69        3.719343      8.085853   1.000000   0.000000
   70        3.885625      8.142610   1.000000   0.000000
   71        4.097028      8.209815   1.000000   0.000000
   72        4.175658      8.672584   1.000000   0.000000
   73        7.598418      8.756717   0.000000   0.000000
   74        8.604519      9.213424   0.000000   0.000000
   75        9.106554      9.723837   0.000000   0.000000
   76        9.435669      9.935430   0.000000   0.000000
   77        9.716729     10.106312   0.000000   0.000000
   78        9.850499     10.162279   0.000000   0.000000
   79       10.012726     10.656469   0.000000   0.000000
   80       10.292114     10.790337   0.000000   0.000000
   81       10.454474     11.318813   0.000000   0.000000
   82       10.534770     11.397329   0.000000   0.000000
   83       11.019783     11.734721   0.000000   0.000000
   84       11.330756     11.927541   0.000000   0.000000
   85       11.442070     12.023247   0.000000   0.000000
   86       11.749525     12.122432   0.000000   0.000000
   87       12.744293     13.023965   0.000000   0.000000
   88       13.089214     13.325512   0.000000   0.000000
   89       13.325701     13.642004   0.000000   0.000000
   90       13.336265     13.677346   0.000000   0.000000
   91       13.473653     13.754535   0.000000   0.000000
   92       13.498188     13.801671   0.000000   0.000000
   93       13.520761     13.921122   0.000000   0.000000
   94       13.599058     14.006708   0.000000   0.000000
   95       14.209339     14.620216   0.000000   0.000000
   96       14.328182     15.031934   0.000000   0.000000
 
  0.2500000E+00  0.2000000E+00  0.0000000E+00  0.2000000E-01
    1      -51.486533    -46.742846   1.000000   1.000000
    2      -51.486503    -46.742765   1.000000   1.000000
    3      -51.485518    -46.741106   1.000000   1.000000
    4      -51.485517    -46.741104   1.000000   1.000000
    5      -50.095029    -46.367328   1.000000   1.000000
    6      -50.094994    -46.367269   1.000000   1.000000
    7      -50.094598    -46.366726   1.000000   1.000000
    8      -50.094586    -46.366709   1.000000   1.000000
    9      -50.047163    -46.356986   1.000000   1.000000
   10      -50.047043    -46.356807   1.000000   1.000000
   11      -50.046987    -46.356728   1.000000   1.000000
   12      -50.046983    -46.356715   1.000000   1.000000
   13      -40.335319    -40.333908   1.000000   1.000000
   14      -40.333318    -40.331870   1.000000   1.000000
   15      -40.332341    -40.330883   1.000000   1.000000
   16      -40.332155    -40.330692   1.000000   1.000000
   17      -40.219082    -40.220726   1.000000   1.000000
   18      -40.218742    -40.220362   1.000000   1.000000
   19      -40.218296    -40.219958   1.000000   1.000000
   20      -40.217981    -40.219598   1.000000   1.000000
   21      -13.474794    -13.162205   1.000000   1.000000
   22      -13.451905    -13.141077   1.000000   1.000000
   23      -13.250073    -13.021141   1.000000   1.000000
   24      -13.214930    -12.985816   1.000000   1.000000
   25       -7.574136     -7.387053   1.000000   1.000000
   26       -7.360318     -7.207101   1.000000   1.000000
   27       -7.214218     -7.057353   1.000000   1.000000
   28       -7.050502     -6.842281   1.000000   1.000000
   29       -2.398366     -0.880159   1.000000   1.000000
   30       -2.380618     -0.748299   1.000000   1.000000
   31       -1.311482      0.125079   1.000000   1.000000
   32       -1.286577      0.339573   1.000000   1.000000
   33       -1.188286      0.412679   1.000000   1.000000
   34       -1.140630      0.442139   1.000000   1.000000
   35       -0.838090      0.466961   1.000000   1.000000
   36       -0.585563      0.752126   1.000000   1.000000
   37       -0.543521      0.759483   1.000000   1.000000
   38       -0.484619      1.008347   1.000000   1.000000
   39       -0.459914      1.031252   1.000000   1.000000
   40       -0.448196      1.184848   1.000000   1.000000
   41       -0.265767      1.344809   1.000000   1.000000
   42       -0.223886      1.419346   1.000000   1.000000
   43       -0.152144      1.469962   1.000000   1.000000
   44       -0.085949      1.820236   1.000000   1.000000
   45       -0.065626      2.217993   1.000000   1.000000
   46        0.127520      2.440460   1.000000   1.000000
   47        0.264889      2.520459   1.000000   1.000000
   48        0.474188      2.638896   1.000000   1.000000
   49        0.702057      2.675747   1.000000   1.000000
   50        0.957868      2.859638   1.000000   1.000000
   51        0.981672      2.983312   1.000000   1.000000
   52        1.141714      3.005040   1.000000   1.000000
   53        1.169179      3.549527   1.000000   1.000000
   54        1.229062      3.659848   1.000000   1.000000
   55        1.325100      3.738581   1.000000   1.000000
   56        1.422063      3.926495   1.000000   1.000000
   57        1.442212      6.836529   1.000000   0.000000
   58        1.520861      6.947882   1.000000   0.000000
   59        1.726517      6.954647   1.000000   0.000000
   60        2.208542      7.003388   1.000000   0.000000
   61        2.431402      7.100562   1.000000   0.000000
   62        2.454442      7.349065   1.000000   0.000000
   63        2.669029      7.408492   1.000000   0.000000
   64        2.822698      7.534395   1.000000   0.000000
   65        2.942591      7.672193   1.000000   0.000000
   66        3.374703      7.777042   1.000000   0.000000
   67        3.407960      7.917221   1.000000   0.000000
   68        3.440430      7.959143   1.000000   0.000000
   69        3.472527      7.990359   1.000000   0.000000
   70        3.681528      8.078086   1.000000   0.000000
   71        3.995203      8.179060   1.000000   0.000000
   72        4.068202      8.465535   1.000000   0.000000
   73        8.014281      8.978042   0.000000   0.000000
   74        9.022370      9.762922   0.000000   0.000000
   75        9.315863      9.831747   0.000000   0.000000
   76        9.495375      9.865515   0.000000   0.000000
   77        9.756025     10.105431   0.000000   0.000000
   78        9.769668     10.202193   0.000000   0.000000
   79        9.915758     10.883566   0.000000   0.000000
   80       10.374507     10.896354   0.000000   0.000000
   81       10.627106     11.040491   0.000000   0.000000
   82       10.685304     11.702771   0.000000   0.000000
   83       11.148237     11.902705   0.000000   0.000000
   84       11.255273     11.924357   0.000000   0.000000
   85       11.502420     12.060806   0.000000   0.000000
   86       11.765473     12.215543   0.000000   0.000000
   87       12.409758     12.817671   0.000000   0.000000
   88       12.814605     13.188263   0.000000   0.000000
   89       13.067420     13.382918   0.000000   0.000000
   90       13.093555     13.406796   0.000000   0.000000
   91       13.236440     13.631352   0.000000   0.000000
   92       13.375176     13.716506   0.000000   0.000000
   93       13.417099     13.759066   0.000000   0.000000
   94       13.477895     13.909090   0.000000   0.000000
   95       13.505492     14.043667   0.000000   0.000000
   96       13.740478     14.152574   0.000000   0.000000
 
  0.5000000E+00  0.2000000E+00  0.0000000E+00  0.2000000E-01
    1      -51.486518    -46.742806   1.000000   1.000000
    2      -51.486518    -46.742806   1.000000   1.000000
    3      -51.485518    -46.741106   1.000000   1.000000
    4      -51.485518    -46.741106   1.000000   1.000000
    5      -50.095014    -46.367299   1.000000   1.000000
    6      -50.095014    -46.367299   1.000000   1.000000
    7      -50.094593    -46.366717   1.000000   1.000000
    8      -50.094593    -46.366717   1.000000   1.000000
    9      -50.047111    -46.356902   1.000000   1.000000
   10      -50.047111    -46.356902   1.000000   1.000000
   11      -50.046984    -46.356721   1.000000   1.000000
   12      -50.046984    -46.356721   1.000000   1.000000
   13      -40.334332    -40.332903   1.000000   1.000000
   14      -40.334332    -40.332903   1.000000   1.000000
   15      -40.332244    -40.330783   1.000000   1.000000
   16      -40.332244    -40.330783   1.000000   1.000000
   17      -40.218528    -40.220164   1.000000   1.000000
   18      -40.218528    -40.220164   1.000000   1.000000
   19      -40.218522    -40.220158   1.000000   1.000000
   20      -40.218522    -40.220158   1.000000   1.000000
   21      -13.463329    -13.151610   1.000000   1.000000
   22      -13.463329    -13.151610   1.000000   1.000000
   23      -13.232547    -13.003525   1.000000   1.000000
   24      -13.232547    -13.003525   1.000000   1.000000
   25       -7.471547     -7.300239   1.000000   1.000000
   26       -7.471547     -7.300239   1.000000   1.000000
   27       -7.134256     -6.953290   1.000000   1.000000