<?xml version="1.0" encoding="ISO-8859-1"?>
<modeling>
 <generator>
  <i name="program" type="string">vasp </i>
  <i name="version" type="string">5.4.4.18Apr17-6-g9f103f2a35  </i>
  <i name="subversion" type="string">(build Oct 25 2017 14:42:18) complex            parallel </i>
  <i name="platform" type="string">LinuxIFC </i>
  <i name="date" type="string">2021 06 15 </i>
  <i name="time" type="string">07:42:56 </i>
 </generator>
 <incar>
  <i type="string" name="PREC">accurate</i>
  <i type="string" name="ALGO"> normal</i>
  <i type="logical" name="ADDGRID"> T  </i>
  <i type="int" name="ISPIN">     2</i>
  <i type="int" name="NELM">   200</i>
  <i type="int" name="NELMIN">     8</i>
  <i name="EDIFF">      0.00000001</i>
  <i type="int" name="ISYM">     0</i>
  <i name="ENCUT">    650.00000000</i>
  <v name="MAGMOM">      0.60000000      0.60000000      0.60000000      0.60000000      0.60000000      0.60000000      0.60000000      0.60000000      5.00000000      5.00000000      5.00000000      5.00000000      0.60000000      0.60000000      0.60000000      0.60000000      0.60000000      0.60000000      0.60000000      0.60000000
</v>
  <i type="logical" name="LREAL"> F  </i>
  <i type="int" name="ISMEAR">     0</i>
  <i name="SIGMA">      0.05000000</i>
  <i type="int" name="NWRITE">     1</i>
  <i type="int" name="LMAXMIX">     4</i>
  <i type="logical" name="LWAVE"> F  </i>
  <i type="logical" name="LASPH"> T  </i>
  <v type="int" name="KPOINT_BSE">    -1     0     0     0</v>
  <i type="int" name="NELM">   200</i>
  <i type="string" name="GGA"> pe</i>
  <i type="logical" name="LDAU"> T  </i>
  <v type="int" name="LDAUTYPE">     2</v>
  <v type="int" name="LDAUL">    -1     2    -1    -1</v>
  <v name="LDAUU">      0.00000000      4.00000000      0.00000000      0.00000000</v>
  <v name="LDAUJ">      0.00000000      0.00000000      0.00000000      0.00000000</v>
  <i type="logical" name="LEPSILON"> T  </i>
  <i type="logical" name="LASPH"> T  </i>
 </incar>
 <structure name="primitive_cell" >
  <crystal>
   <varray name="basis" >
    <v>       7.71241101       0.00000000       0.00000000 </v>
    <v>       0.00000000       5.60512121       0.00000000 </v>
    <v>       0.00000000       0.00000000       5.63851349 </v>
   </varray>
   <i name="volume">    243.74729138 </i>
   <varray name="rec_basis" >
    <v>       0.12966114       0.00000000       0.00000000 </v>
    <v>       0.00000000       0.17840827       0.00000000 </v>
    <v>       0.00000000       0.00000000       0.17735171 </v>
   </varray>
  </crystal>
  <varray name="positions" >
   <v>       0.25000000      -0.50000000      -0.06497981 </v>
   <v>       0.00000000      -0.50000000       0.00000000 </v>
   <v>      -0.50000000      -0.50000000       0.00000000 </v>
   <v>       0.25000000      -0.50000000       0.49787894 </v>
   <v>      -0.02786705      -0.25000000      -0.25000000 </v>
   <v>      -0.47213295       0.25000000      -0.25000000 </v>
   <v>       0.46151864       0.25000000       0.25000000 </v>
   <v>       0.03848136      -0.25000000       0.25000000 </v>
   <v>       0.25000000       0.00000000       0.00212106 </v>
   <v>      -0.46151864      -0.25000000      -0.25000000 </v>
   <v>      -0.03848136       0.25000000      -0.25000000 </v>
   <v>       0.02786705       0.25000000       0.25000000 </v>
   <v>       0.47213295      -0.25000000       0.25000000 </v>
   <v>       0.25000000       0.00000000      -0.43502019 </v>
   <v>      -0.25000000      -0.50000000       0.06497981 </v>
   <v>       0.00000000       0.00000000      -0.50000000 </v>
   <v>      -0.50000000       0.00000000      -0.50000000 </v>
   <v>      -0.25000000      -0.50000000      -0.49787894 </v>
   <v>      -0.25000000       0.00000000      -0.00212106 </v>
   <v>      -0.25000000       0.00000000       0.43502019 </v>
  </varray>
 </structure>
 <varray name="primitive_index" >
  <v type="int" >        1 </v>
  <v type="int" >       17 </v>
  <v type="int" >       19 </v>
  <v type="int" >       14 </v>
  <v type="int" >        9 </v>
  <v type="int" >       12 </v>
  <v type="int" >        6 </v>
  <v type="int" >        7 </v>
  <v type="int" >       13 </v>
  <v type="int" >        5 </v>
  <v type="int" >        8 </v>
  <v type="int" >       10 </v>
  <v type="int" >       11 </v>
  <v type="int" >        2 </v>
  <v type="int" >        3 </v>
  <v type="int" >       18 </v>
  <v type="int" >       20 </v>
  <v type="int" >       16 </v>
  <v type="int" >       15 </v>
  <v type="int" >        4 </v>
 </varray>
 <kpoints>
  <generation param="Gamma">
   <v type="int" name="divisions">       4        5        5 </v>
   <v name="usershift">      0.00000000       0.00000000       0.00000000 </v>
   <v name="genvec1">      0.25000000       0.00000000       0.00000000 </v>
   <v name="genvec2">      0.00000000       0.20000000       0.00000000 </v>
   <v name="genvec3">      0.00000000       0.00000000       0.20000000 </v>
   <v name="shift">      0.00000000       0.00000000       0.00000000 </v>
  </generation>
  <varray name="kpointlist" >
   <v>       0.00000000       0.00000000       0.00000000 </v>
   <v>       0.25000000       0.00000000       0.00000000 </v>
   <v>       0.50000000       0.00000000       0.00000000 </v>
   <v>       0.00000000       0.20000000       0.00000000 </v>
   <v>       0.25000000       0.20000000       0.00000000 </v>
   <v>       0.50000000       0.20000000       0.00000000 </v>
   <v>      -0.25000000       0.20000000       0.00000000 </v>
   <v>       0.00000000       0.40000000       0.00000000 </v>
   <v>       0.25000000       0.40000000       0.00000000 </v>
   <v>       0.50000000       0.40000000       0.00000000 </v>
   <v>      -0.25000000       0.40000000       0.00000000 </v>
   <v>       0.00000000       0.00000000       0.20000000 </v>
   <v>       0.25000000       0.00000000       0.20000000 </v>
   <v>       0.50000000       0.00000000       0.20000000 </v>
   <v>      -0.25000000       0.00000000       0.20000000 </v>
   <v>       0.00000000       0.20000000       0.20000000 </v>
   <v>       0.25000000       0.20000000       0.20000000 </v>
   <v>       0.50000000       0.20000000       0.20000000 </v>
   <v>      -0.25000000       0.20000000       0.20000000 </v>
   <v>       0.00000000       0.40000000       0.20000000 </v>
   <v>       0.25000000       0.40000000       0.20000000 </v>
   <v>       0.50000000       0.40000000       0.20000000 </v>
   <v>      -0.25000000       0.40000000       0.20000000 </v>
   <v>       0.00000000      -0.40000000       0.20000000 </v>
   <v>       0.25000000      -0.40000000       0.20000000 </v>
   <v>       0.50000000      -0.40000000       0.20000000 </v>
   <v>      -0.25000000      -0.40000000       0.20000000 </v>
   <v>       0.00000000      -0.20000000       0.20000000 </v>
   <v>       0.25000000      -0.20000000       0.20000000 </v>
   <v>       0.50000000      -0.20000000       0.20000000 </v>
   <v>      -0.25000000      -0.20000000       0.20000000 </v>
   <v>       0.00000000       0.00000000       0.40000000 </v>
   <v>       0.25000000       0.00000000       0.40000000 </v>
   <v>       0.50000000       0.00000000       0.40000000 </v>
   <v>      -0.25000000       0.00000000       0.40000000 </v>
   <v>       0.00000000       0.20000000       0.40000000 </v>
   <v>       0.25000000       0.20000000       0.40000000 </v>
   <v>       0.50000000       0.20000000       0.40000000 </v>
   <v>      -0.25000000       0.20000000       0.40000000 </v>
   <v>       0.00000000       0.40000000       0.40000000 </v>
   <v>       0.25000000       0.40000000       0.40000000 </v>
   <v>       0.50000000       0.40000000       0.40000000 </v>
   <v>      -0.25000000       0.40000000       0.40000000 </v>
   <v>       0.00000000      -0.40000000       0.40000000 </v>
   <v>       0.25000000      -0.40000000       0.40000000 </v>
   <v>       0.50000000      -0.40000000       0.40000000 </v>
   <v>      -0.25000000      -0.40000000       0.40000000 </v>
   <v>       0.00000000      -0.20000000       0.40000000 </v>
   <v>       0.25000000      -0.20000000       0.40000000 </v>
   <v>       0.50000000      -0.20000000       0.40000000 </v>
   <v>      -0.25000000      -0.20000000       0.40000000 </v>
  </varray>
  <varray name="weights" >
   <v>       0.01000000 </v>
   <v>       0.02000000 </v>
   <v>       0.01000000 </v>
   <v>       0.02000000 </v>
   <v>       0.02000000 </v>
   <v>       0.02000000 </v>
   <v>       0.02000000 </v>
   <v>       0.02000000 </v>
   <v>       0.02000000 </v>
   <v>       0.02000000 </v>
   <v>       0.02000000 </v>
   <v>       0.02000000 </v>
   <v>       0.02000000 </v>
   <v>       0.02000000 </v>
   <v>       0.02000000 </v>
   <v>       0.02000000 </v>
   <v>       0.02000000 </v>
   <v>       0.02000000 </v>
   <v>       0.02000000 </v>
   <v>       0.02000000 </v>
   <v>       0.02000000 </v>
   <v>       0.02000000 </v>
   <v>       0.02000000 </v>
   <v>       0.02000000 </v>
   <v>       0.02000000 </v>
   <v>       0.02000000 </v>
   <v>       0.02000000 </v>
   <v>       0.02000000 </v>
   <v>       0.02000000 </v>
   <v>       0.02000000 </v>
   <v>       0.02000000 </v>
   <v>       0.02000000 </v>
   <v>       0.02000000 </v>
   <v>       0.02000000 </v>
   <v>       0.02000000 </v>
   <v>       0.02000000 </v>
   <v>       0.02000000 </v>
   <v>       0.02000000 </v>
   <v>       0.02000000 </v>
   <v>       0.02000000 </v>
   <v>       0.02000000 </v>
   <v>       0.02000000 </v>
   <v>       0.02000000 </v>
   <v>       0.02000000 </v>
   <v>       0.02000000 </v>
   <v>       0.02000000 </v>
   <v>       0.02000000 </v>
   <v>       0.02000000 </v>
   <v>       0.02000000 </v>
   <v>       0.02000000 </v>
   <v>       0.02000000 </v>
  </varray>
 </kpoints>
 <parameters>
  <separator name="general" >
   <i type="string" name="SYSTEM">unknown system</i>
   <i type="logical" name="LCOMPAT"> F  </i>
  </separator>
  <separator name="electronic" >
   <i type="string" name="PREC">accura</i>
   <i name="ENMAX">    650.00000000</i>
   <i name="ENAUG">    628.94500000</i>
   <i name="EDIFF">      0.00000001</i>
   <i type="int" name="IALGO">    38</i>
   <i type="int" name="IWAVPR">    10</i>
   <i type="int" name="NBANDS">    96</i>
   <i name="NELECT">    128.00000000</i>
   <i type="int" name="TURBO">     0</i>
   <i type="int" name="IRESTART">     0</i>
   <i type="int" name="NREBOOT">     0</i>
   <i type="int" name="NMIN">     0</i>
   <i name="EREF">      0.00000000</i>
   <separator name="electronic smearing" >
    <i type="int" name="ISMEAR">     0</i>
    <i name="SIGMA">      0.05000000</i>
    <i name="KSPACING">      0.50000000</i>
    <i type="logical" name="KGAMMA"> T  </i>
   </separator>
   <separator name="electronic projectors" >
    <i type="logical" name="LREAL"> F  </i>
    <v name="ROPT">      0.00000000      0.00000000      0.00000000      0.00000000</v>
    <i type="int" name="LMAXPAW">  -100</i>
    <i type="int" name="LMAXMIX">     4</i>
    <i type="logical" name="NLSPLINE"> F  </i>
   </separator>
   <separator name="electronic startup" >
    <i type="int" name="ISTART">     0</i>
    <i type="int" name="ICHARG">     2</i>
    <i type="int" name="INIWAV">     1</i>
   </separator>
   <separator name="electronic spin" >
    <i type="int" name="ISPIN">     2</i>
    <i type="logical" name="LNONCOLLINEAR"> F  </i>
    <v name="MAGMOM">      0.60000000      0.60000000      0.60000000      0.60000000      0.60000000      0.60000000      0.60000000      0.60000000      5.00000000      5.00000000      5.00000000      5.00000000      0.60000000      0.60000000      0.60000000      0.60000000      0.60000000      0.60000000      0.60000000      0.60000000
</v>
    <i name="NUPDOWN">     -1.00000000</i>
    <i type="logical" name="LSORBIT"> F  </i>
    <v name="SAXIS">      0.00000000      0.00000000      1.00000000</v>
    <i type="logical" name="LSPIRAL"> F  </i>
    <v name="QSPIRAL">      0.00000000      0.00000000      0.00000000</v>
    <i type="logical" name="LZEROZ"> F  </i>
   </separator>
   <separator name="electronic exchange-correlation" >
    <i type="logical" name="LASPH"> T  </i>
    <i type="logical" name="LMETAGGA"> F  </i>
   </separator>
   <separator name="electronic convergence" >
    <i type="int" name="NELM">   200</i>
    <i type="int" name="NELMDL">    -5</i>
    <i type="int" name="NELMIN">     8</i>
    <i name="ENINI">    650.00000000</i>
    <separator name="electronic convergence detail" >
     <i type="logical" name="LDIAG"> T  </i>
     <i type="logical" name="LSUBROT"> F  </i>
     <i name="WEIMIN">      0.00000000</i>
     <i name="EBREAK">      0.00000000</i>
     <i name="DEPER">      0.30000000</i>
     <i type="int" name="NRMM">     4</i>
     <i name="TIME">      0.40000000</i>
    </separator>
   </separator>
   <separator name="electronic mixer" >
    <i name="AMIX">      0.40000000</i>
    <i name="BMIX">      1.00000000</i>
    <i name="AMIN">      0.10000000</i>
    <i name="AMIX_MAG">      1.60000000</i>
    <i name="BMIX_MAG">      1.00000000</i>
    <separator name="electronic mixer details" >
     <i type="int" name="IMIX">     4</i>
     <i type="logical" name="MIXFIRST"> F  </i>
     <i type="int" name="MAXMIX">   -45</i>
     <i name="WC">    100.00000000</i>
     <i type="int" name="INIMIX">     1</i>
     <i type="int" name="MIXPRE">     1</i>
     <i type="int" name="MREMOVE">     5</i>
    </separator>
   </separator>
   <separator name="electronic dipolcorrection" >
    <i type="logical" name="LDIPOL"> F  </i>
    <i type="logical" name="LMONO"> F  </i>
    <i type="int" name="IDIPOL">     0</i>
    <i name="EPSILON">      1.00000000</i>
    <v name="DIPOL">   -100.00000000   -100.00000000   -100.00000000</v>
    <i name="EFIELD">      0.00000000</i>
   </separator>
  </separator>
  <separator name="grids" >
   <i type="int" name="NGX">    64</i>
   <i type="int" name="NGY">    48</i>
   <i type="int" name="NGZ">    48</i>
   <i type="int" name="NGXF">   128</i>
   <i type="int" name="NGYF">    96</i>
   <i type="int" name="NGZF">    96</i>
   <i type="logical" name="ADDGRID"> T  </i>
  </separator>
  <separator name="ionic" >
   <i type="int" name="NSW">     0</i>
   <i type="int" name="IBRION">    -1</i>
   <i type="int" name="MDALGO">     0</i>
   <i type="int" name="ISIF">     2</i>
   <i name="PSTRESS">      0.00000000</i>
   <i name="EDIFFG">      0.00000010</i>
   <i type="int" name="NFREE">     0</i>
   <i name="POTIM">      0.50000000</i>
   <i name="SMASS">     -3.00000000</i>
   <i name="SCALEE">      1.00000000</i>
  </separator>
  <separator name="ionic md" >
   <i name="TEBEG">      0.00010000</i>
   <i name="TEEND">      0.00010000</i>
   <i type="int" name="NBLOCK">     1</i>
   <i type="int" name="KBLOCK">     1</i>
   <i type="int" name="NPACO">   256</i>
   <i name="APACO">     16.00000000</i>
  </separator>
  <separator name="symmetry" >
   <i type="int" name="ISYM">     0</i>
   <i name="SYMPREC">      0.00001000</i>
  </separator>
  <separator name="dos" >
   <i type="int" name="LORBIT">     0</i>
   <v name="RWIGS">     -1.00000000     -1.00000000     -1.00000000     -1.00000000</v>
   <i type="int" name="NEDOS">   301</i>
   <i name="EMIN">     10.00000000</i>
   <i name="EMAX">    -10.00000000</i>
   <i name="EFERMI">      0.00000000</i>
  </separator>
  <separator name="writing" >
   <i type="int" name="NWRITE">     1</i>
   <i type="logical" name="LWAVE"> F  </i>
   <i type="logical" name="LDOWNSAMPLE"> F  </i>
   <i type="logical" name="LCHARG"> T  </i>
   <i type="logical" name="LPARD"> F  </i>
   <i type="logical" name="LVTOT"> F  </i>
   <i type="logical" name="LVHAR"> F  </i>
   <i type="logical" name="LELF"> F  </i>
   <i type="logical" name="LOPTICS"> F  </i>
   <v name="STM">      0.00000000      0.00000000      0.00000000      0.00000000      0.00000000      0.00000000      0.00000000</v>
  </separator>
  <separator name="performance" >
   <i type="int" name="NPAR">    48</i>
   <i type="int" name="NSIM">     4</i>
   <i type="int" name="NBLK">    -1</i>
   <i type="logical" name="LPLANE"> T  </i>
   <i type="logical" name="LSCALAPACK"> T  </i>
   <i type="logical" name="LSCAAWARE"> F  </i>
   <i type="logical" name="LSCALU"> F  </i>
   <i type="logical" name="LASYNC"> F  </i>
   <i type="logical" name="LORBITALREAL"> F  </i>
  </separator>
  <separator name="miscellaneous" >
   <i type="int" name="IDIOT">     3</i>
   <i type="int" name="ISPECIAL">     0</i>
   <i type="logical" name="LMUSIC"> F  </i>
   <v name="POMASS">      7.01000000     55.84700000     32.06600000     16.00000000</v>
   <v name="DARWINR">      0.00000000      0.00000000      0.00000000      0.00000000</v>
   <v name="DARWINV">      1.00000000      1.00000000      1.00000000      1.00000000</v>
   <i type="logical" name="LCORR"> T  </i>
  </separator>
  <i type="logical" name="GGA_COMPAT"> T  </i>
  <i type="logical" name="LBERRY"> F  </i>
  <i type="int" name="ICORELEVEL">     0</i>
  <i type="logical" name="LDAU"> T  </i>
  <v type="int" name="LDAUTYPE">     2</v>
  <v type="int" name="LDAUL">    -1</v>
  <v name="LDAUU">      0.00000000</v>
  <v name="LDAUJ">      0.00000000</v>
  <i type="int" name="LDAUPRINT">     0</i>
  <i type="int" name="I_CONSTRAINED_M">     0</i>
  <separator name="electronic exchange-correlation" >
   <i type="string" name="GGA">PE</i>
   <i type="int" name="VOSKOWN">     0</i>
   <i type="logical" name="LHFCALC"> F  </i>
   <i type="string" name="PRECFOCK"></i>
   <i type="logical" name="LSYMGRAD"> F  </i>
   <i type="logical" name="LHFONE"> F  </i>
   <i type="logical" name="LRHFCALC"> F  </i>
   <i type="logical" name="LTHOMAS"> F  </i>
   <i type="logical" name="LMODELHF"> F  </i>
   <i name="ENCUT4O">     -1.00000000</i>
   <i type="int" name="EXXOEP">     0</i>
   <i type="int" name="FOURORBIT">     0</i>
   <i name="AEXX">      0.00000000</i>
   <i name="HFALPHA">      0.00000000</i>
   <i name="MCALPHA">      0.00000000</i>
   <i name="ALDAX">      1.00000000</i>
   <i name="AGGAX">      1.00000000</i>
   <i name="ALDAC">      1.00000000</i>
   <i name="AGGAC">      1.00000000</i>
   <i type="int" name="NKREDX">     1</i>
   <i type="int" name="NKREDY">     1</i>
   <i type="int" name="NKREDZ">     1</i>
   <i type="logical" name="SHIFTRED"> F  </i>
   <i type="logical" name="ODDONLY"> F  </i>
   <i type="logical" name="EVENONLY"> F  </i>
   <i type="int" name="LMAXFOCK">     0</i>
   <i type="int" name="NMAXFOCKAE">     0</i>
   <i type="logical" name="LFOCKAEDFT"> F  </i>
   <i name="HFSCREEN">      0.00000000</i>
   <i name="HFSCREENC">      0.00000000</i>
   <i type="int" name="NBANDSGWLOW">     0</i>
  </separator>
  <separator name="vdW DFT" >
   <i type="logical" name="LUSE_VDW"> F  </i>
   <i name="Zab_VDW">     -0.84910000</i>
   <i name="PARAM1">      0.12340000</i>
   <i name="PARAM2">      1.00000000</i>
   <i name="PARAM3">      0.00000000</i>
  </separator>
  <separator name="model GW" >
   <i type="int" name="MODEL_GW">     0</i>
   <i name="MODEL_EPS0">      7.31241874</i>
   <i name="MODEL_ALPHA">      1.00000000</i>
  </separator>
  <separator name="linear response parameters" >
   <i type="logical" name="LEPSILON"> T  </i>
   <i type="logical" name="LRPA"> F  </i>
   <i type="logical" name="LNABLA"> F  </i>
   <i type="logical" name="LVEL"> F  </i>
   <i type="int" name="KINTER">     0</i>
   <i name="CSHIFT">      0.10000000</i>
   <i name="OMEGAMAX">     -1.00000000</i>
   <i name="DEG_THRESHOLD">      0.00200000</i>
   <i name="RTIME">     -0.10000000</i>
   <i name="WPLASMAI">      0.00000000</i>
   <v name="DFIELD">      0.00000000      0.00000000      0.00000000</v>
   <v name="WPLASMA">      0.00000000      0.00000000      0.00000000      0.00000000      0.00000000      0.00000000      0.00000000      0.00000000      0.00000000</v>
  </separator>
  <separator name="orbital magnetization" >
   <i type="logical" name="NUCIND"> F  </i>
   <v name="MAGPOS">      0.00000000      0.00000000      0.00000000</v>
   <i type="logical" name="LNICSALL"> T  </i>
   <i type="logical" name="ORBITALMAG"> F  </i>
   <i type="logical" name="LMAGBLOCH"> F  </i>
   <i type="logical" name="LCHIMAG"> F  </i>
   <i type="logical" name="LGAUGE"> T  </i>
   <i type="int" name="MAGATOM">     0</i>
   <v name="MAGDIPOL">      0.00000000      0.00000000      0.00000000</v>
   <v name="AVECCONST">      0.00000000      0.00000000      0.00000000</v>
  </separator>
  <separator name="response functions" >
   <i type="logical" name="LADDER"> F  </i>
   <i type="logical" name="LRPAFORCE"> F  </i>
   <i type="logical" name="LFXC"> F  </i>
   <i type="logical" name="LHARTREE"> T  </i>
   <i type="int" name="IBSE">     0</i>
   <v type="int" name="KPOINT">    -1     0     0     0</v>
   <i type="logical" name="LTCTE"> F  </i>
   <i type="logical" name="LTETE"> F  </i>
   <i type="logical" name="LTRIPLET"> F  </i>
   <i type="logical" name="LFXCEPS"> F  </i>
   <i type="logical" name="LFXHEG"> F  </i>
   <i type="int" name="NATURALO">     2</i>
   <i type="logical" name="L2ORDER"> F  </i>
   <i type="logical" name="LMP2LT"> F  </i>
   <i type="logical" name="LUSEW"> F  </i>
   <i name="ENCUTGW">     -2.00000000</i>
   <i name="ENCUTGWSOFT">     -2.00000000</i>
   <i name="ENCUTLF">     -1.00000000</i>
   <i type="int" name="LMAXMP2">    -1</i>
   <i name="SCISSOR">      0.00000000</i>
   <i type="int" name="NOMEGA">     0</i>
   <i type="int" name="NOMEGAR">     0</i>
   <i type="int" name="NBANDSGW">    -1</i>
   <i type="int" name="NBANDSO">    -1</i>
   <i type="int" name="NBANDSV">    -1</i>
   <i type="int" name="NELM">   200</i>
   <i type="int" name="NELMHF">     1</i>
   <i type="int" name="DIM">     3</i>
   <i type="int" name="ANTIRES">     0</i>
   <i name="OMEGAMAX">    -30.00000000</i>
   <i name="OMEGAMIN">    -30.00000000</i>
   <i name="OMEGATL">   -200.00000000</i>
   <i type="int" name="OMEGAGRID">   140</i>
   <i name="CSHIFT">     -0.10000000</i>
   <i type="logical" name="SELFENERGY"> F  </i>
   <i type="logical" name="LSPECTRAL"> F  </i>
   <i type="logical" name="LSPECTRALGW"> F  </i>
   <i type="logical" name="LSINGLES"> F  </i>
   <i type="logical" name="LFERMIGW"> F  </i>
   <i type="logical" name="ODDONLYGW"> F  </i>
   <i type="logical" name="EVENONLYGW"> F  </i>
   <i type="int" name="NKREDLFX">     1</i>
   <i type="int" name="NKREDLFY">     1</i>
   <i type="int" name="NKREDLFZ">     1</i>
   <i type="int" name="MAXMEM">  2800</i>
   <i type="int" name="TELESCOPE">     0</i>
   <i type="int" name="TAUPAR">     1</i>
   <i type="int" name="OMEGAPAR">    -1</i>
   <i name="LAMBDA">      1.00000000</i>
  </separator>
  <separator name="External order field" >
   <i name="OFIELD_KAPPA">      0.00000000</i>
   <v name="OFIELD_K">      0.00000000      0.00000000      0.00000000</v>
   <i name="OFIELD_Q6_NEAR">      0.00000000</i>
   <i name="OFIELD_Q6_FAR">      0.00000000</i>
   <i name="OFIELD_A">      0.00000000</i>
  </separator>
 </parameters>
 <atominfo>
  <atoms>      20 </atoms>
  <types>       4 </types>
  <array name="atoms" >
   <dimension dim="1">ion</dimension>
   <field type="string">element</field>
   <field type="int">atomtype</field>
   <set>
    <rc><c>Li</c><c>   1</c></rc>
    <rc><c>Li</c><c>   1</c></rc>
    <rc><c>Li</c><c>   1</c></rc>
    <rc><c>Li</c><c>   1</c></rc>
    <rc><c>Li</c><c>   1</c></rc>
    <rc><c>Li</c><c>   1</c></rc>
    <rc><c>Li</c><c>   1</c></rc>
    <rc><c>Li</c><c>   1</c></rc>
    <rc><c>Fe</c><c>   2</c></rc>
    <rc><c>Fe</c><c>   2</c></rc>
    <rc><c>Fe</c><c>   2</c></rc>
    <rc><c>Fe</c><c>   2</c></rc>
    <rc><c>S </c><c>   3</c></rc>
    <rc><c>S </c><c>   3</c></rc>
    <rc><c>S </c><c>   3</c></rc>
    <rc><c>S </c><c>   3</c></rc>
    <rc><c>O </c><c>   4</c></rc>
    <rc><c>O </c><c>   4</c></rc>
    <rc><c>O </c><c>   4</c></rc>
    <rc><c>O </c><c>   4</c></rc>
   </set>
  </array>
  <array name="atomtypes" >
   <dimension dim="1">type</dimension>
   <field type="int">atomspertype</field>
   <field type="string">element</field>
   <field>mass</field>
   <field>valence</field>
   <field type="string">pseudopotential</field>
   <set>
    <rc><c>   8</c><c>Li</c><c>      7.01000000</c><c>      3.00000000</c><c>  PAW_PBE Li_sv 10Sep2004               </c></rc>
    <rc><c>   4</c><c>Fe</c><c>     55.84700000</c><c>     14.00000000</c><c>  PAW_PBE Fe_pv 02Aug2007               </c></rc>
    <rc><c>   4</c><c>S </c><c>     32.06600000</c><c>      6.00000000</c><c>  PAW_PBE S 06Sep2000                   </c></rc>
    <rc><c>   4</c><c>O </c><c>     16.00000000</c><c>      6.00000000</c><c>  PAW_PBE O 08Apr2002                   </c></rc>
   </set>
  </array>
 </atominfo>
 <structure name="initialpos" >
  <crystal>
   <varray name="basis" >
    <v>       7.71241101       0.00000000       0.00000000 </v>
    <v>       0.00000000       5.60512121       0.00000000 </v>
    <v>       0.00000000       0.00000000       5.63851349 </v>
   </varray>
   <i name="volume">    243.74729138 </i>
   <varray name="rec_basis" >
    <v>       0.12966114       0.00000000       0.00000000 </v>
    <v>       0.00000000       0.17840827       0.00000000 </v>
    <v>       0.00000000       0.00000000       0.17735171 </v>
   </varray>
  </crystal>
  <varray name="positions" >
   <v>       0.25000000       0.50000000       0.93502019 </v>
   <v>       0.25000000       0.00000000       0.56497981 </v>
   <v>       0.75000000       0.50000000       0.06497981 </v>
   <v>       0.75000000       0.00000000       0.43502019 </v>
   <v>       0.53848136       0.75000000       0.75000000 </v>
   <v>       0.46151864       0.25000000       0.25000000 </v>
   <v>       0.03848136       0.75000000       0.25000000 </v>
   <v>       0.96151864       0.25000000       0.75000000 </v>
   <v>       0.97213295       0.75000000       0.75000000 </v>
   <v>       0.02786705       0.25000000       0.25000000 </v>
   <v>       0.47213295       0.75000000       0.25000000 </v>
   <v>       0.52786705       0.25000000       0.75000000 </v>
   <v>       0.25000000       0.00000000       0.00212106 </v>
   <v>       0.25000000       0.50000000       0.49787894 </v>
   <v>       0.75000000       0.00000000       0.99787894 </v>
   <v>       0.75000000       0.50000000       0.50212106 </v>
   <v>       0.00000000       0.50000000       0.00000000 </v>
   <v>       0.00000000       0.00000000       0.50000000 </v>
   <v>       0.50000000       0.50000000       0.00000000 </v>
   <v>       0.50000000       0.00000000       0.50000000 </v>
  </varray>
 </structure>
 <calculation>
  <scstep>
   <time name="dav">   17.02   17.23</time>
   <time name="total">   17.61   17.90</time>
   <energy>
    <i name="alphaZ">    321.79216335 </i>
    <i name="ewald">  -8422.31555205 </i>
    <i name="hartreedc">  -4610.67830763 </i>
    <i name="XCdc">    553.27692443 </i>
    <i name="pawpsdc">  10889.09168606 </i>
    <i name="pawaedc"> -11329.76614659 </i>
    <i name="eentropy">     -0.00750479 </i>
    <i name="bandstr">   -618.49989590 </i>
    <i name="atom">  14288.66063153 </i>
    <i name="e_fr_energy">   1071.55399840 </i>
    <i name="e_wo_entrp">   1071.56150319 </i>
    <i name="e_0_energy">   1071.55775079 </i>
   </energy>
  </scstep>
  <scstep>
   <time name="dav">   15.39   15.41</time>
   <time name="total">   15.39   15.41</time>
   <energy>
    <i name="e_fr_energy">    -28.71948559 </i>
    <i name="e_wo_entrp">    -28.70666947 </i>
    <i name="e_0_energy">    -28.71307753 </i>
   </energy>
  </scstep>
  <scstep>
   <time name="dav">   29.72   30.18</time>
   <time name="total">   29.72   30.18</time>
   <energy>
    <i name="e_fr_energy">   -106.66183970 </i>
    <i name="e_wo_entrp">   -106.64436706 </i>
    <i name="e_0_energy">   -106.65310338 </i>
   </energy>
  </scstep>
  <scstep>
   <time name="dav">   22.20   22.76</time>
   <time name="total">   22.21   22.76</time>
   <energy>
    <i name="e_fr_energy">   -113.19672227 </i>
    <i name="e_wo_entrp">   -113.18010212 </i>
    <i name="e_0_energy">   -113.18841220 </i>
   </energy>
  </scstep>
  <scstep>
   <time name="dav">   23.56   23.59</time>
   <time name="total">   24.12   24.15</time>
   <energy>
    <i name="e_fr_energy">   -113.25491764 </i>
    <i name="e_wo_entrp">   -113.23836514 </i>
    <i name="e_0_energy">   -113.24664139 </i>
   </energy>
  </scstep>
  <scstep>
   <time name="dav">   23.05   23.30</time>
   <time name="total">   24.20   24.46</time>
   <energy>
    <i name="e_fr_energy">    -99.20177952 </i>
    <i name="e_wo_entrp">    -99.19022143 </i>
    <i name="e_0_energy">    -99.19600047 </i>
   </energy>
  </scstep>
  <scstep>
   <time name="dav">   14.40   14.41</time>
   <time name="total">   15.56   15.57</time>
   <energy>
    <i name="e_fr_energy">   -101.17743272 </i>
    <i name="e_wo_entrp">   -101.17743272 </i>
    <i name="e_0_energy">   -101.17743272 </i>
   </energy>
  </scstep>
  <scstep>
   <time name="dav">   25.59   26.05</time>
   <time name="total">   26.75   27.21</time>
   <energy>
    <i name="e_fr_energy">   -102.18301357 </i>
    <i name="e_wo_entrp">   -102.18301357 </i>
    <i name="e_0_energy">   -102.18301357 </i>
   </energy>
  </scstep>
  <scstep>
   <time name="dav">   19.43   19.64</time>
   <time name="total">   20.61   20.84</time>
   <energy>
    <i name="e_fr_energy">   -102.65295138 </i>
    <i name="e_wo_entrp">   -102.65295138 </i>
    <i name="e_0_energy">   -102.65295138 </i>
   </energy>
  </scstep>
  <scstep>
   <time name="dav">   22.31   22.60</time>
   <time name="total">   23.46   23.80</time>
   <energy>
    <i name="e_fr_energy">   -102.72332220 </i>
    <i name="e_wo_entrp">   -102.72332220 </i>
    <i name="e_0_energy">   -102.72332220 </i>
   </energy>
  </scstep>
  <scstep>
   <time name="dav">   18.01   18.46</time>
   <time name="total">   19.21   19.68</time>
   <energy>
    <i name="e_fr_energy">   -102.73482910 </i>
    <i name="e_wo_entrp">   -102.73482910 </i>
    <i name="e_0_energy">   -102.73482910 </i>
   </energy>
  </scstep>
  <scstep>
   <time name="dav">   21.69   21.74</time>
   <time name="total">   22.94   23.01</time>
   <energy>
    <i name="e_fr_energy">   -102.73784145 </i>
    <i name="e_wo_entrp">   -102.73784145 </i>
    <i name="e_0_energy">   -102.73784145 </i>
   </energy>
  </scstep>
  <scstep>
   <time name="dav">   23.66   24.30</time>
   <time name="total">   24.81   25.46</time>
   <energy>
    <i name="e_fr_energy">   -102.73839702 </i>
    <i name="e_wo_entrp">   -102.73839702 </i>
    <i name="e_0_energy">   -102.73839702 </i>
   </energy>
  </scstep>
  <scstep>
   <time name="dav">   20.22   20.24</time>
   <time name="total">   21.38   21.40</time>
   <energy>
    <i name="e_fr_energy">   -102.73848981 </i>
    <i name="e_wo_entrp">   -102.73848981 </i>
    <i name="e_0_energy">   -102.73848981 </i>
   </energy>
  </scstep>
  <scstep>
   <time name="dav">   22.60   23.20</time>
   <time name="total">   23.75   24.35</time>
   <energy>
    <i name="e_fr_energy">   -102.73853890 </i>
    <i name="e_wo_entrp">   -102.73853890 </i>
    <i name="e_0_energy">   -102.73853890 </i>
   </energy>
  </scstep>
  <scstep>
   <time name="dav">   23.45   23.90</time>
   <time name="total">   24.68   25.14</time>
   <energy>
    <i name="e_fr_energy">   -102.73854635 </i>
    <i name="e_wo_entrp">   -102.73854635 </i>
    <i name="e_0_energy">   -102.73854635 </i>
   </energy>
  </scstep>
  <scstep>
   <time name="dav">   23.79   23.89</time>
   <time name="total">   24.86   25.07</time>
   <energy>
    <i name="e_fr_energy">   -102.73855265 </i>
    <i name="e_wo_entrp">   -102.73855265 </i>
    <i name="e_0_energy">   -102.73855265 </i>
   </energy>
  </scstep>
  <scstep>
   <time name="dav">   26.06   26.68</time>
   <time name="total">   27.21   27.83</time>
   <energy>
    <i name="e_fr_energy">   -102.73855936 </i>
    <i name="e_wo_entrp">   -102.73855936 </i>
    <i name="e_0_energy">   -102.73855936 </i>
   </energy>
  </scstep>
  <scstep>
   <time name="dav">   21.52   21.79</time>
   <time name="total">   22.68   22.97</time>
   <energy>
    <i name="e_fr_energy">   -102.73856630 </i>
    <i name="e_wo_entrp">   -102.73856630 </i>
    <i name="e_0_energy">   -102.73856630 </i>
   </energy>
  </scstep>
  <scstep>
   <time name="dav">   25.74   26.29</time>
   <time name="total">   26.92   27.47</time>
   <energy>
    <i name="e_fr_energy">   -102.73857181 </i>
    <i name="e_wo_entrp">   -102.73857181 </i>
    <i name="e_0_energy">   -102.73857181 </i>
   </energy>
  </scstep>
  <scstep>
   <time name="dav">   25.44   26.08</time>
   <time name="total">   26.60   27.23</time>
   <energy>
    <i name="e_fr_energy">   -102.73857363 </i>
    <i name="e_wo_entrp">   -102.73857363 </i>
    <i name="e_0_energy">   -102.73857363 </i>
   </energy>
  </scstep>
  <scstep>
   <time name="dav">   18.27   18.29</time>
   <time name="total">   19.42   19.44</time>
   <energy>
    <i name="e_fr_energy">   -102.73857397 </i>
    <i name="e_wo_entrp">   -102.73857397 </i>
    <i name="e_0_energy">   -102.73857397 </i>
   </energy>
  </scstep>
  <scstep>
   <time name="dav">   28.64   29.04</time>
   <time name="total">   29.79   30.20</time>
   <energy>
    <i name="e_fr_energy">   -102.73857405 </i>
    <i name="e_wo_entrp">   -102.73857405 </i>
    <i name="e_0_energy">   -102.73857405 </i>
   </energy>
  </scstep>
  <scstep>
   <time name="dav">   24.10   24.64</time>
   <time name="total">   25.31   25.86</time>
   <energy>
    <i name="e_fr_energy">   -102.73857404 </i>
    <i name="e_wo_entrp">   -102.73857404 </i>
    <i name="e_0_energy">   -102.73857404 </i>
   </energy>
  </scstep>
  <scstep>
   <time name="dav">   14.83   14.86</time>
   <time name="total">   16.01   16.03</time>
   <energy>
    <i name="e_fr_energy">   -102.73857406 </i>
    <i name="e_wo_entrp">   -102.73857406 </i>
    <i name="e_0_energy">   -102.73857406 </i>
   </energy>
  </scstep>
  <scstep>
   <time name="dav">   11.74   11.79</time>
   <time name="total">   12.34   12.39</time>
   <energy>
    <i name="alphaZ">    321.79216335 </i>
    <i name="ewald">  -8422.31555205 </i>
    <i name="hartreedc">  -4505.69381501 </i>
    <i name="XCdc">    549.64546785 </i>
    <i name="pawpsdc">  13590.73717769 </i>
    <i name="pawaedc"> -14042.84241814 </i>
    <i name="eentropy">     -0.00000000 </i>
    <i name="bandstr">  -1882.72222928 </i>
    <i name="atom">  14288.66063153 </i>
    <i name="e_fr_energy">   -102.73857405 </i>
    <i name="e_wo_entrp">   -102.73857405 </i>
    <i name="e_0_energy">   -102.73857405 </i>
   </energy>
  </scstep>
  <structure>
   <crystal>
    <varray name="basis" >
     <v>       7.71241101       0.00000000       0.00000000 </v>
     <v>       0.00000000       5.60512121       0.00000000 </v>
     <v>       0.00000000       0.00000000       5.63851349 </v>
    </varray>
    <i name="volume">    243.74729138 </i>
    <varray name="rec_basis" >
     <v>       0.12966114       0.00000000       0.00000000 </v>
     <v>       0.00000000       0.17840827       0.00000000 </v>
     <v>       0.00000000       0.00000000       0.17735171 </v>
    </varray>
   </crystal>
   <varray name="positions" >
    <v>       0.25000000       0.50000000       0.93502019 </v>
    <v>       0.25000000       0.00000000       0.56497981 </v>
    <v>       0.75000000       0.50000000       0.06497981 </v>
    <v>       0.75000000       0.00000000       0.43502019 </v>
    <v>       0.53848136       0.75000000       0.75000000 </v>
    <v>       0.46151864       0.25000000       0.25000000 </v>
    <v>       0.03848136       0.75000000       0.25000000 </v>
    <v>       0.96151864       0.25000000       0.75000000 </v>
    <v>       0.97213295       0.75000000       0.75000000 </v>
    <v>       0.02786705       0.25000000       0.25000000 </v>
    <v>       0.47213295       0.75000000       0.25000000 </v>
    <v>       0.52786705       0.25000000       0.75000000 </v>
    <v>       0.25000000       0.00000000       0.00212106 </v>
    <v>       0.25000000       0.50000000       0.49787894 </v>
    <v>       0.75000000       0.00000000       0.99787894 </v>
    <v>       0.75000000       0.50000000       0.50212106 </v>
    <v>       0.00000000       0.50000000       0.00000000 </v>
    <v>       0.00000000       0.00000000       0.50000000 </v>
    <v>       0.50000000       0.50000000       0.00000000 </v>
    <v>       0.50000000       0.00000000       0.50000000 </v>
   </varray>
  </structure>
  <varray name="forces" >
   <v>      -0.00000084       0.00000027      -0.00008429 </v>
   <v>       0.00000085      -0.00000026       0.00008430 </v>
   <v>       0.00000084      -0.00000027       0.00008429 </v>
   <v>      -0.00000085       0.00000027      -0.00008428 </v>
   <v>      -0.00008098       0.00000004      -0.00000240 </v>
   <v>       0.00008099      -0.00000004       0.00000239 </v>
   <v>      -0.00008107      -0.00000004      -0.00000238 </v>
   <v>       0.00008108       0.00000005       0.00000238 </v>
   <v>      -0.00002055       0.00000002       0.00000110 </v>
   <v>       0.00002052       0.00000000      -0.00000109 </v>
   <v>      -0.00002054      -0.00000001       0.00000111 </v>
   <v>       0.00002056      -0.00000002      -0.00000109 </v>
   <v>       0.00000002       0.00000011       0.00001295 </v>
   <v>      -0.00000001       0.00000003      -0.00001290 </v>
   <v>      -0.00000002      -0.00000010      -0.00001296 </v>
   <v>       0.00000001      -0.00000003       0.00001290 </v>
   <v>      -0.00000001      -0.00000001      -0.00000001 </v>
   <v>      -0.00000000       0.00000001      -0.00000000 </v>
   <v>       0.00000001       0.00000000      -0.00000001 </v>
   <v>       0.00000001       0.00000000      -0.00000000 </v>
  </varray>
  <varray name="stress" >
   <v>      -0.00684865       0.00000004      -0.00001982 </v>
   <v>      -0.00000024      -0.00591051      -0.00000301 </v>
   <v>      -0.00001944      -0.00000281       0.01051379 </v>
  </varray>
  <energy>
   <i name="e_fr_energy">   -102.73857405 </i>
   <i name="e_wo_entrp">   -102.73857405 </i>
   <i name="e_0_energy">     -0.00000000 </i>
  </energy>
  <scstep>
   <time name="total">   10.53   10.75</time>
   <energy>
    <i name="e_fr_energy">   -369.90124384 </i>
    <i name="e_wo_entrp">   -369.90124384 </i>
    <i name="e_0_energy">   -369.90124384 </i>
   </energy>
  </scstep>
  <scstep>
   <time name="total">   16.39   16.93</time>
   <energy>
    <i name="e_fr_energy">   -525.34910007 </i>
    <i name="e_wo_entrp">   -525.34910007 </i>
    <i name="e_0_energy">   -525.34910007 </i>
   </energy>
  </scstep>
  <scstep>
   <time name="total">   17.99   18.29</time>
   <energy>
    <i name="e_fr_energy">   -527.93045842 </i>
    <i name="e_wo_entrp">   -527.93045842 </i>
    <i name="e_0_energy">   -527.93045842 </i>
   </energy>
  </scstep>
  <scstep>
   <time name="total">   15.41   15.81</time>
   <energy>
    <i name="e_fr_energy">   -529.02360172 </i>
    <i name="e_wo_entrp">   -529.02360172 </i>
    <i name="e_0_energy">   -529.02360172 </i>
   </energy>
  </scstep>
  <scstep>
   <time name="total">   15.88   16.10</time>
   <energy>
    <i name="e_fr_energy">   -529.39889481 </i>
    <i name="e_wo_entrp">   -529.39889481 </i>
    <i name="e_0_energy">   -529.39889481 </i>
   </energy>
  </scstep>
  <scstep>
   <time name="total">   14.70   14.91</time>
   <energy>
    <i name="e_fr_energy">   -529.51005884 </i>
    <i name="e_wo_entrp">   -529.51005884 </i>
    <i name="e_0_energy">   -529.51005884 </i>
   </energy>
  </scstep>
  <scstep>
   <time name="total">   15.81   16.12</time>
   <energy>
    <i name="e_fr_energy">   -529.54641794 </i>
    <i name="e_wo_entrp">   -529.54641794 </i>
    <i name="e_0_energy">   -529.54641794 </i>
   </energy>
  </scstep>
  <scstep>
   <time name="total">   15.36   15.71</time>
   <energy>
    <i name="e_fr_energy">   -529.56066699 </i>
    <i name="e_wo_entrp">   -529.56066699 </i>
    <i name="e_0_energy">   -529.56066699 </i>
   </energy>
  </scstep>
  <scstep>
   <time name="total">   14.84   15.05</time>
   <energy>
    <i name="e_fr_energy">   -529.56619000 </i>
    <i name="e_wo_entrp">   -529.56619000 </i>
    <i name="e_0_energy">   -529.56619000 </i>
   </energy>
  </scstep>
  <scstep>
   <time name="total">   15.70   16.02</time>
   <energy>
    <i name="e_fr_energy">   -529.56869968 </i>
    <i name="e_wo_entrp">   -529.56869968 </i>
    <i name="e_0_energy">   -529.56869968 </i>
   </energy>
  </scstep>
  <scstep>
   <time name="total">   15.23   15.65</time>
   <energy>
    <i name="e_fr_energy">   -529.56967032 </i>
    <i name="e_wo_entrp">   -529.56967032 </i>
    <i name="e_0_energy">   -529.56967032 </i>
   </energy>
  </scstep>
  <scstep>
   <time name="total">   15.44   15.96</time>
   <energy>
    <i name="e_fr_energy">   -529.57013914 </i>
    <i name="e_wo_entrp">   -529.57013914 </i>
    <i name="e_0_energy">   -529.57013914 </i>
   </energy>
  </scstep>
  <scstep>
   <time name="total">   15.72   15.89</time>
   <energy>
    <i name="e_fr_energy">   -529.57032632 </i>
    <i name="e_wo_entrp">   -529.57032632 </i>
    <i name="e_0_energy">   -529.57032632 </i>
   </energy>
  </scstep>
  <scstep>
   <time name="total">   14.85   15.06</time>
   <energy>
    <i name="e_fr_energy">   -529.57041302 </i>
    <i name="e_wo_entrp">   -529.57041302 </i>
    <i name="e_0_energy">   -529.57041302 </i>
   </energy>
  </scstep>
  <scstep>
   <time name="total">   15.24   15.80</time>
   <energy>
    <i name="e_fr_energy">   -529.57045492 </i>
    <i name="e_wo_entrp">   -529.57045492 </i>
    <i name="e_0_energy">   -529.57045492 </i>
   </energy>
  </scstep>
  <scstep>
   <time name="total">   15.20   15.37</time>
   <energy>
    <i name="e_fr_energy">   -529.57046696 </i>
    <i name="e_wo_entrp">   -529.57046696 </i>
    <i name="e_0_energy">   -529.57046696 </i>
   </energy>
  </scstep>
  <scstep>
   <time name="total">   15.00   15.34</time>
   <energy>
    <i name="e_fr_energy">   -529.57048131 </i>
    <i name="e_wo_entrp">   -529.57048131 </i>
    <i name="e_0_energy">   -529.57048131 </i>
   </energy>
  </scstep>
  <scstep>
   <time name="total">   15.09   15.61</time>
   <energy>
    <i name="e_fr_energy">   -529.57048284 </i>
    <i name="e_wo_entrp">   -529.57048284 </i>
    <i name="e_0_energy">   -529.57048284 </i>
   </energy>
  </scstep>
  <scstep>
   <time name="total">   14.84   15.27</time>
   <energy>
    <i name="e_fr_energy">   -529.57048646 </i>
    <i name="e_wo_entrp">   -529.57048646 </i>
    <i name="e_0_energy">   -529.57048646 </i>
   </energy>
  </scstep>
  <scstep>
   <time name="total">   14.91   15.07</time>
   <energy>
    <i name="e_fr_energy">   -529.57048696 </i>
    <i name="e_wo_entrp">   -529.57048696 </i>
    <i name="e_0_energy">   -529.57048696 </i>
   </energy>
  </scstep>
  <scstep>
   <time name="total">   14.21   14.40</time>
   <energy>
    <i name="e_fr_energy">   -529.57048763 </i>
    <i name="e_wo_entrp">   -529.57048763 </i>
    <i name="e_0_energy">   -529.57048763 </i>
   </energy>
  </scstep>
  <scstep>
   <time name="total">   14.16   14.41</time>
   <energy>
    <i name="e_fr_energy">   -529.57048744 </i>
    <i name="e_wo_entrp">   -529.57048744 </i>
    <i name="e_0_energy">   -529.57048744 </i>
   </energy>
  </scstep>
  <scstep>
   <time name="total">   14.65   14.69</time>
   <energy>
    <i name="e_fr_energy">   -529.57048742 </i>
    <i name="e_wo_entrp">   -529.57048742 </i>
    <i name="e_0_energy">   -529.57048742 </i>
   </energy>
  </scstep>
  <scstep>
   <time name="total">   13.19   13.33</time>
   <energy>
    <i name="e_fr_energy">   -529.57048696 </i>
    <i name="e_wo_entrp">   -529.57048696 </i>
    <i name="e_0_energy">   -529.57048696 </i>
   </energy>
  </scstep>
  <scstep>
   <time name="total">   13.36   13.82</time>
   <energy>
    <i name="e_fr_energy">   -529.57048659 </i>
    <i name="e_wo_entrp">   -529.57048659 </i>
    <i name="e_0_energy">   -529.57048659 </i>
   </energy>
  </scstep>
  <scstep>
   <time name="total">   13.66   13.70</time>
   <energy>
    <i name="e_fr_energy">   -529.57048648 </i>
    <i name="e_wo_entrp">   -529.57048648 </i>
    <i name="e_0_energy">   -529.57048648 </i>
   </energy>
  </scstep>
  <scstep>
   <time name="total">   10.60   10.71</time>
   <energy>
    <i name="e_fr_energy">   -371.43952789 </i>
    <i name="e_wo_entrp">   -371.43952789 </i>
    <i name="e_0_energy">   -371.43952789 </i>
   </energy>
  </scstep>
  <scstep>
   <time name="total">   16.39   16.98</time>
   <energy>
    <i name="e_fr_energy">   -522.53507611 </i>
    <i name="e_wo_entrp">   -522.53507611 </i>
    <i name="e_0_energy">   -522.53507611 </i>
   </energy>
  </scstep>
  <scstep>
   <time name="total">   18.05   18.58</time>
   <energy>
    <i name="e_fr_energy">   -525.01642570 </i>
    <i name="e_wo_entrp">   -525.01642570 </i>
    <i name="e_0_energy">   -525.01642570 </i>
   </energy>
  </scstep>
  <scstep>
   <time name="total">   14.99   15.39</time>
   <energy>
    <i name="e_fr_energy">   -525.80633736 </i>
    <i name="e_wo_entrp">   -525.80633736 </i>
    <i name="e_0_energy">   -525.80633736 </i>
   </energy>
  </scstep>
  <scstep>
   <time name="total">   15.82   15.85</time>
   <energy>
    <i name="e_fr_energy">   -526.11657226 </i>
    <i name="e_wo_entrp">   -526.11657226 </i>
    <i name="e_0_energy">   -526.11657226 </i>
   </energy>
  </scstep>
  <scstep>
   <time name="total">   15.13   15.28</time>
   <energy>
    <i name="e_fr_energy">   -526.20795220 </i>
    <i name="e_wo_entrp">   -526.20795220 </i>
    <i name="e_0_energy">   -526.20795220 </i>
   </energy>
  </scstep>
  <scstep>
   <time name="total">   15.83   16.20</time>
   <energy>
    <i name="e_fr_energy">   -526.23791962 </i>
    <i name="e_wo_entrp">   -526.23791962 </i>
    <i name="e_0_energy">   -526.23791962 </i>
   </energy>
  </scstep>
  <scstep>
   <time name="total">   15.40   15.48</time>
   <energy>
    <i name="e_fr_energy">   -526.24847322 </i>
    <i name="e_wo_entrp">   -526.24847322 </i>
    <i name="e_0_energy">   -526.24847322 </i>
   </energy>
  </scstep>
  <scstep>
   <time name="total">   14.72   15.06</time>
   <energy>
    <i name="e_fr_energy">   -526.25255219 </i>
    <i name="e_wo_entrp">   -526.25255219 </i>
    <i name="e_0_energy">   -526.25255219 </i>
   </energy>
  </scstep>
  <scstep>
   <time name="total">   15.40   15.86</time>
   <energy>
    <i name="e_fr_energy">   -526.25415466 </i>
    <i name="e_wo_entrp">   -526.25415466 </i>
    <i name="e_0_energy">   -526.25415466 </i>
   </energy>
  </scstep>
  <scstep>
   <time name="total">   15.25   15.42</time>
   <energy>
    <i name="e_fr_energy">   -526.25481644 </i>
    <i name="e_wo_entrp">   -526.25481644 </i>
    <i name="e_0_energy">   -526.25481644 </i>
   </energy>
  </scstep>
  <scstep>
   <time name="total">   15.22   15.67</time>
   <energy>
    <i name="e_fr_energy">   -526.25502534 </i>
    <i name="e_wo_entrp">   -526.25502534 </i>
    <i name="e_0_energy">   -526.25502534 </i>
   </energy>
  </scstep>
  <scstep>
   <time name="total">   15.70   16.09</time>
   <energy>
    <i name="e_fr_energy">   -526.25520413 </i>
    <i name="e_wo_entrp">   -526.25520413 </i>
    <i name="e_0_energy">   -526.25520413 </i>
   </energy>
  </scstep>
  <scstep>
   <time name="total">   14.78   15.25</time>
   <energy>
    <i name="e_fr_energy">   -526.25522461 </i>
    <i name="e_wo_entrp">   -526.25522461 </i>
    <i name="e_0_energy">   -526.25522461 </i>
   </energy>
  </scstep>
  <scstep>
   <time name="total">   15.47   15.80</time>
   <energy>
    <i name="e_fr_energy">   -526.25526008 </i>
    <i name="e_wo_entrp">   -526.25526008 </i>
    <i name="e_0_energy">   -526.25526008 </i>
   </energy>
  </scstep>
  <scstep>
   <time name="total">   15.44   15.66</time>
   <energy>
    <i name="e_fr_energy">   -526.25533169 </i>
    <i name="e_wo_entrp">   -526.25533169 </i>
    <i name="e_0_energy">   -526.25533169 </i>
   </energy>
  </scstep>
  <scstep>
   <time name="total">   14.96   15.09</time>
   <energy>
    <i name="e_fr_energy">   -526.25527618 </i>
    <i name="e_wo_entrp">   -526.25527618 </i>
    <i name="e_0_energy">   -526.25527618 </i>
   </energy>
  </scstep>
  <scstep>
   <time name="total">   15.35   15.68</time>
   <energy>
    <i name="e_fr_energy">   -526.25533463 </i>
    <i name="e_wo_entrp">   -526.25533463 </i>
    <i name="e_0_energy">   -526.25533463 </i>
   </energy>
  </scstep>
  <scstep>
   <time name="total">   14.48   14.74</time>
   <energy>
    <i name="e_fr_energy">   -526.25531537 </i>
    <i name="e_wo_entrp">   -526.25531537 </i>
    <i name="e_0_energy">   -526.25531537 </i>
   </energy>
  </scstep>
  <scstep>
   <time name="total">   14.91   15.24</time>
   <energy>
    <i name="e_fr_energy">   -526.25528206 </i>
    <i name="e_wo_entrp">   -526.25528206 </i>
    <i name="e_0_energy">   -526.25528206 </i>
   </energy>
  </scstep>
  <scstep>
   <time name="total">   14.46   14.65</time>
   <energy>
    <i name="e_fr_energy">   -526.25524286 </i>
    <i name="e_wo_entrp">   -526.25524286 </i>
    <i name="e_0_energy">   -526.25524286 </i>
   </energy>
  </scstep>
  <scstep>
   <time name="total">   13.38   13.73</time>
   <energy>
    <i name="e_fr_energy">   -526.25530440 </i>
    <i name="e_wo_entrp">   -526.25530440 </i>
    <i name="e_0_energy">   -526.25530440 </i>
   </energy>
  </scstep>
  <scstep>
   <time name="total">   13.79   14.28</time>
   <energy>
    <i name="e_fr_energy">   -526.25534372 </i>
    <i name="e_wo_entrp">   -526.25534372 </i>
    <i name="e_0_energy">   -526.25534372 </i>
   </energy>
  </scstep>
  <scstep>
   <time name="total">   13.10   13.33</time>
   <energy>
    <i name="e_fr_energy">   -526.25532770 </i>
    <i name="e_wo_entrp">   -526.25532770 </i>
    <i name="e_0_energy">   -526.25532770 </i>
   </energy>
  </scstep>
  <scstep>
   <time name="total">   12.86   13.15</time>
   <energy>
    <i name="e_fr_energy">   -526.25524388 </i>
    <i name="e_wo_entrp">   -526.25524388 </i>
    <i name="e_0_energy">   -526.25524388 </i>
   </energy>
  </scstep>
  <scstep>
   <time name="total">   10.98   11.20</time>
   <energy>
    <i name="e_fr_energy">   -361.06512909 </i>
    <i name="e_wo_entrp">   -361.06512909 </i>
    <i name="e_0_energy">   -361.06512909 </i>
   </energy>
  </scstep>
  <scstep>
   <time name="total">   16.30   16.51</time>
   <energy>
    <i name="e_fr_energy">   -521.56638607 </i>
    <i name="e_wo_entrp">   -521.56638607 </i>
    <i name="e_0_energy">   -521.56638607 </i>
   </energy>
  </scstep>
  <scstep>
   <time name="total">   18.62   19.02</time>
   <energy>
    <i name="e_fr_energy">   -524.19980530 </i>
    <i name="e_wo_entrp">   -524.19980530 </i>
    <i name="e_0_energy">   -524.19980530 </i>
   </energy>
  </scstep>
  <scstep>
   <time name="total">   15.15   15.32</time>
   <energy>
    <i name="e_fr_energy">   -525.12025626 </i>
    <i name="e_wo_entrp">   -525.12025626 </i>
    <i name="e_0_energy">   -525.12025626 </i>
   </energy>
  </scstep>
  <scstep>
   <time name="total">   15.07   15.42</time>
   <energy>
    <i name="e_fr_energy">   -525.48664222 </i>
    <i name="e_wo_entrp">   -525.48664222 </i>
    <i name="e_0_energy">   -525.48664222 </i>
   </energy>
  </scstep>
  <scstep>
   <time name="total">   15.46   16.03</time>
   <energy>
    <i name="e_fr_energy">   -525.59775163 </i>
    <i name="e_wo_entrp">   -525.59775163 </i>
    <i name="e_0_energy">   -525.59775163 </i>
   </energy>
  </scstep>
  <scstep>
   <time name="total">   15.23   15.39</time>
   <energy>
    <i name="e_fr_energy">   -525.63518373 </i>
    <i name="e_wo_entrp">   -525.63518373 </i>
    <i name="e_0_energy">   -525.63518373 </i>
   </energy>
  </scstep>
  <scstep>
   <time name="total">   15.03   15.30</time>
   <energy>
    <i name="e_fr_energy">   -525.64853693 </i>
    <i name="e_wo_entrp">   -525.64853693 </i>
    <i name="e_0_energy">   -525.64853693 </i>
   </energy>
  </scstep>
  <scstep>
   <time name="total">   15.50   15.97</time>
   <energy>
    <i name="e_fr_energy">   -525.65366971 </i>
    <i name="e_wo_entrp">   -525.65366971 </i>
    <i name="e_0_energy">   -525.65366971 </i>
   </energy>
  </scstep>
  <scstep>
   <time name="total">   15.17   15.56</time>
   <energy>
    <i name="e_fr_energy">   -525.65567741 </i>
    <i name="e_wo_entrp">   -525.65567741 </i>
    <i name="e_0_energy">   -525.65567741 </i>
   </energy>
  </scstep>
  <scstep>
   <time name="total">   15.43   15.78</time>
   <energy>
    <i name="e_fr_energy">   -525.65651222 </i>
    <i name="e_wo_entrp">   -525.65651222 </i>
    <i name="e_0_energy">   -525.65651222 </i>
   </energy>
  </scstep>
  <scstep>
   <time name="total">   15.77   16.20</time>
   <energy>
    <i name="e_fr_energy">   -525.65686257 </i>
    <i name="e_wo_entrp">   -525.65686257 </i>
    <i name="e_0_energy">   -525.65686257 </i>
   </energy>
  </scstep>
  <scstep>
   <time name="total">   14.80   15.10</time>
   <energy>
    <i name="e_fr_energy">   -525.65701801 </i>
    <i name="e_wo_entrp">   -525.65701801 </i>
    <i name="e_0_energy">   -525.65701801 </i>
   </energy>
  </scstep>
  <scstep>
   <time name="total">   15.69   15.94</time>
   <energy>
    <i name="e_fr_energy">   -525.65708519 </i>
    <i name="e_wo_entrp">   -525.65708519 </i>
    <i name="e_0_energy">   -525.65708519 </i>
   </energy>
  </scstep>
  <scstep>
   <time name="total">   15.44   15.64</time>
   <energy>
    <i name="e_fr_energy">   -525.65711543 </i>
    <i name="e_wo_entrp">   -525.65711543 </i>
    <i name="e_0_energy">   -525.65711543 </i>
   </energy>
  </scstep>
  <scstep>
   <time name="total">   15.52   15.91</time>
   <energy>
    <i name="e_fr_energy">   -525.65712950 </i>
    <i name="e_wo_entrp">   -525.65712950 </i>
    <i name="e_0_energy">   -525.65712950 </i>
   </energy>
  </scstep>
  <scstep>
   <time name="total">   15.36   15.53</time>
   <energy>
    <i name="e_fr_energy">   -525.65713577 </i>
    <i name="e_wo_entrp">   -525.65713577 </i>
    <i name="e_0_energy">   -525.65713577 </i>
   </energy>
  </scstep>
  <scstep>
   <time name="total">   14.52   14.75</time>
   <energy>
    <i name="e_fr_energy">   -525.65713900 </i>
    <i name="e_wo_entrp">   -525.65713900 </i>
    <i name="e_0_energy">   -525.65713900 </i>
   </energy>
  </scstep>
  <scstep>
   <time name="total">   14.97   15.58</time>
   <energy>
    <i name="e_fr_energy">   -525.65714022 </i>
    <i name="e_wo_entrp">   -525.65714022 </i>
    <i name="e_0_energy">   -525.65714022 </i>
   </energy>
  </scstep>
  <scstep>
   <time name="total">   14.18   14.42</time>
   <energy>
    <i name="e_fr_energy">   -525.65714044 </i>
    <i name="e_wo_entrp">   -525.65714044 </i>
    <i name="e_0_energy">   -525.65714044 </i>
   </energy>
  </scstep>
  <scstep>
   <time name="total">   14.66   14.92</time>
   <energy>
    <i name="e_fr_energy">   -525.65714129 </i>
    <i name="e_wo_entrp">   -525.65714129 </i>
    <i name="e_0_energy">   -525.65714129 </i>
   </energy>
  </scstep>
  <scstep>
   <time name="total">   14.63   14.69</time>
   <energy>
    <i name="e_fr_energy">   -525.65714091 </i>
    <i name="e_wo_entrp">   -525.65714091 </i>
    <i name="e_0_energy">   -525.65714091 </i>
   </energy>
  </scstep>
  <scstep>
   <time name="total">   13.17   13.55</time>
   <energy>
    <i name="e_fr_energy">   -525.65714109 </i>
    <i name="e_wo_entrp">   -525.65714109 </i>
    <i name="e_0_energy">   -525.65714109 </i>
   </energy>
  </scstep>
  <scstep>
   <time name="total">   13.31   13.82</time>
   <energy>
    <i name="e_fr_energy">   -525.65714132 </i>
    <i name="e_wo_entrp">   -525.65714132 </i>
    <i name="e_0_energy">   -525.65714132 </i>
   </energy>
  </scstep>
  <scstep>
   <time name="total">   13.27   13.55</time>
   <energy>
    <i name="e_fr_energy">   -525.65714061 </i>
    <i name="e_wo_entrp">   -525.65714061 </i>
    <i name="e_0_energy">   -525.65714061 </i>
   </energy>
  </scstep>
  <scstep>
   <time name="total">   12.05   12.26</time>
   <energy>
    <i name="e_fr_energy">   -525.65714062 </i>
    <i name="e_wo_entrp">   -525.65714062 </i>
    <i name="e_0_energy">   -525.65714062 </i>
   </energy>
  </scstep>
  <scstep>
   <time name="total">   12.68   12.92</time>
   <energy>
    <i name="e_fr_energy">   -525.65714099 </i>
    <i name="e_wo_entrp">   -525.65714099 </i>
    <i name="e_0_energy">   -525.65714099 </i>
   </energy>
  </scstep>
  <scstep>
   <time name="total">   15.12   15.19</time>
   <energy>
    <i name="e_fr_energy">     -2.12288110 </i>
    <i name="e_wo_entrp">     -2.12288110 </i>
    <i name="e_0_energy">     -2.12288110 </i>
   </energy>
  </scstep>
  <scstep>
   <time name="total">   18.34   18.72</time>
   <energy>
    <i name="e_fr_energy">     -3.28817105 </i>
    <i name="e_wo_entrp">     -3.28817105 </i>
    <i name="e_0_energy">     -3.28817105 </i>
   </energy>
  </scstep>
  <scstep>
   <time name="total">   19.72   19.79</time>
   <energy>
    <i name="e_fr_energy">     -3.31147956 </i>
    <i name="e_wo_entrp">     -3.31147956 </i>
    <i name="e_0_energy">     -3.31147956 </i>
   </energy>
  </scstep>
  <scstep>
   <time name="total">   20.54   20.92</time>
   <energy>
    <i name="e_fr_energy">     -3.31776029 </i>
    <i name="e_wo_entrp">     -3.31776029 </i>
    <i name="e_0_energy">     -3.31776029 </i>
   </energy>
  </scstep>
  <scstep>
   <time name="total">   20.54   20.86</time>
   <energy>
    <i name="e_fr_energy">     -3.31956129 </i>
    <i name="e_wo_entrp">     -3.31956129 </i>
    <i name="e_0_energy">     -3.31956129 </i>
   </energy>
  </scstep>
  <scstep>
   <time name="total">   20.15   20.84</time>
   <energy>
    <i name="e_fr_energy">     -3.31998930 </i>
    <i name="e_wo_entrp">     -3.31998930 </i>
    <i name="e_0_energy">     -3.31998930 </i>
   </energy>
  </scstep>
  <scstep>
   <time name="total">   20.07   20.87</time>
   <energy>
    <i name="e_fr_energy">     -3.32011140 </i>
    <i name="e_wo_entrp">     -3.32011140 </i>
    <i name="e_0_energy">     -3.32011140 </i>
   </energy>
  </scstep>
  <scstep>
   <time name="total">   20.63   21.12</time>
   <energy>
    <i name="e_fr_energy">     -3.32014616 </i>
    <i name="e_wo_entrp">     -3.32014616 </i>
    <i name="e_0_energy">     -3.32014616 </i>
   </energy>
  </scstep>
  <scstep>
   <time name="total">   20.31   20.62</time>
   <energy>
    <i name="e_fr_energy">     -3.32015755 </i>
    <i name="e_wo_entrp">     -3.32015755 </i>
    <i name="e_0_energy">     -3.32015755 </i>
   </energy>
  </scstep>
  <scstep>
   <time name="total">   20.73   21.18</time>
   <energy>
    <i name="e_fr_energy">     -3.32016129 </i>
    <i name="e_wo_entrp">     -3.32016129 </i>
    <i name="e_0_energy">     -3.32016129 </i>
   </energy>
  </scstep>
  <scstep>
   <time name="total">   20.54   20.69</time>
   <energy>
    <i name="e_fr_energy">     -3.32016277 </i>
    <i name="e_wo_entrp">     -3.32016277 </i>
    <i name="e_0_energy">     -3.32016277 </i>
   </energy>
  </scstep>
  <scstep>
   <time name="total">   20.54   20.97</time>
   <energy>
    <i name="e_fr_energy">     -3.32016332 </i>
    <i name="e_wo_entrp">     -3.32016332 </i>
    <i name="e_0_energy">     -3.32016332 </i>
   </energy>
  </scstep>
  <scstep>
   <time name="total">   20.18   20.74</time>
   <energy>
    <i name="e_fr_energy">     -3.32016356 </i>
    <i name="e_wo_entrp">     -3.32016356 </i>
    <i name="e_0_energy">     -3.32016356 </i>
   </energy>
  </scstep>
  <scstep>
   <time name="total">   20.37   20.61</time>
   <energy>
    <i name="e_fr_energy">     -3.32016366 </i>
    <i name="e_wo_entrp">     -3.32016366 </i>
    <i name="e_0_energy">     -3.32016366 </i>
   </energy>
  </scstep>
  <scstep>
   <time name="total">   19.55   20.06</time>
   <energy>
    <i name="e_fr_energy">     -3.32016370 </i>
    <i name="e_wo_entrp">     -3.32016370 </i>
    <i name="e_0_energy">     -3.32016370 </i>
   </energy>
  </scstep>
  <scstep>
   <time name="total">   19.59   19.74</time>
   <energy>
    <i name="e_fr_energy">     -3.32016372 </i>
    <i name="e_wo_entrp">     -3.32016372 </i>
    <i name="e_0_energy">     -3.32016372 </i>
   </energy>
  </scstep>
  <scstep>
   <time name="total">   19.12   19.58</time>
   <energy>
    <i name="e_fr_energy">     -3.32016373 </i>
    <i name="e_wo_entrp">     -3.32016373 </i>
    <i name="e_0_energy">     -3.32016373 </i>
   </energy>
  </scstep>
  <scstep>
   <time name="total">   15.26   15.45</time>
   <energy>
    <i name="e_fr_energy">     -2.19092122 </i>
    <i name="e_wo_entrp">     -2.19092122 </i>
    <i name="e_0_energy">     -2.19092122 </i>
   </energy>
  </scstep>
  <scstep>
   <time name="total">   17.94   18.06</time>
   <energy>
    <i name="e_fr_energy">     -3.13842069 </i>
    <i name="e_wo_entrp">     -3.13842069 </i>
    <i name="e_0_energy">     -3.13842069 </i>
   </energy>
  </scstep>
  <scstep>
   <time name="total">   20.23   20.84</time>
   <energy>
    <i name="e_fr_energy">     -3.16295322 </i>
    <i name="e_wo_entrp">     -3.16295322 </i>
    <i name="e_0_energy">     -3.16295322 </i>
   </energy>
  </scstep>
  <scstep>
   <time name="total">   20.35   20.60</time>
   <energy>
    <i name="e_fr_energy">     -3.16948397 </i>
    <i name="e_wo_entrp">     -3.16948397 </i>
    <i name="e_0_energy">     -3.16948397 </i>
   </energy>
  </scstep>
  <scstep>
   <time name="total">   20.71   21.06</time>
   <energy>
    <i name="e_fr_energy">     -3.17121682 </i>
    <i name="e_wo_entrp">     -3.17121682 </i>
    <i name="e_0_energy">     -3.17121682 </i>
   </energy>
  </scstep>
  <scstep>
   <time name="total">   20.58   20.77</time>
   <energy>
    <i name="e_fr_energy">     -3.17161612 </i>
    <i name="e_wo_entrp">     -3.17161612 </i>
    <i name="e_0_energy">     -3.17161612 </i>
   </energy>
  </scstep>
  <scstep>
   <time name="total">   20.82   21.16</time>
   <energy>
    <i name="e_fr_energy">     -3.17173726 </i>
    <i name="e_wo_entrp">     -3.17173726 </i>
    <i name="e_0_energy">     -3.17173726 </i>
   </energy>
  </scstep>
  <scstep>
   <time name="total">   20.19   20.53</time>
   <energy>
    <i name="e_fr_energy">     -3.17177768 </i>
    <i name="e_wo_entrp">     -3.17177768 </i>
    <i name="e_0_energy">     -3.17177768 </i>
   </energy>
  </scstep>
  <scstep>
   <time name="total">   21.27   21.84</time>
   <energy>
    <i name="e_fr_energy">     -3.17179269 </i>
    <i name="e_wo_entrp">     -3.17179269 </i>
    <i name="e_0_energy">     -3.17179269 </i>
   </energy>
  </scstep>
  <scstep>
   <time name="total">   20.41   20.75</time>
   <energy>
    <i name="e_fr_energy">     -3.17179823 </i>
    <i name="e_wo_entrp">     -3.17179823 </i>
    <i name="e_0_energy">     -3.17179823 </i>
   </energy>
  </scstep>
  <scstep>
   <time name="total">   20.72   21.11</time>
   <energy>
    <i name="e_fr_energy">     -3.17180025 </i>
    <i name="e_wo_entrp">     -3.17180025 </i>
    <i name="e_0_energy">     -3.17180025 </i>
   </energy>
  </scstep>
  <scstep>
   <time name="total">   20.58   20.86</time>
   <energy>
    <i name="e_fr_energy">     -3.17180122 </i>
    <i name="e_wo_entrp">     -3.17180122 </i>
    <i name="e_0_energy">     -3.17180122 </i>
   </energy>
  </scstep>
  <scstep>
   <time name="total">   20.13   20.49</time>
   <energy>
    <i name="e_fr_energy">     -3.17180166 </i>
    <i name="e_wo_entrp">     -3.17180166 </i>
    <i name="e_0_energy">     -3.17180166 </i>
   </energy>
  </scstep>
  <scstep>
   <time name="total">   20.44   20.80</time>
   <energy>
    <i name="e_fr_energy">     -3.17180188 </i>
    <i name="e_wo_entrp">     -3.17180188 </i>
    <i name="e_0_energy">     -3.17180188 </i>
   </energy>
  </scstep>
  <scstep>
   <time name="total">   19.49   19.77</time>
   <energy>
    <i name="e_fr_energy">     -3.17180199 </i>
    <i name="e_wo_entrp">     -3.17180199 </i>
    <i name="e_0_energy">     -3.17180199 </i>
   </energy>
  </scstep>
  <scstep>
   <time name="total">   19.70   20.26</time>
   <energy>
    <i name="e_fr_energy">     -3.17180204 </i>
    <i name="e_wo_entrp">     -3.17180204 </i>
    <i name="e_0_energy">     -3.17180204 </i>
   </energy>
  </scstep>
  <scstep>
   <time name="total">   19.19   19.36</time>
   <energy>
    <i name="e_fr_energy">     -3.17180207 </i>
    <i name="e_wo_entrp">     -3.17180207 </i>
    <i name="e_0_energy">     -3.17180207 </i>
   </energy>
  </scstep>
  <scstep>
   <time name="total">   19.65   20.13</time>
   <energy>
    <i name="e_fr_energy">     -3.17180208 </i>
    <i name="e_wo_entrp">     -3.17180208 </i>
    <i name="e_0_energy">     -3.17180208 </i>
   </energy>
  </scstep>
  <scstep>
   <time name="total">   18.40   18.52</time>
   <energy>
    <i name="e_fr_energy">     -3.17180209 </i>
    <i name="e_wo_entrp">     -3.17180209 </i>
    <i name="e_0_energy">     -3.17180209 </i>
   </energy>
  </scstep>
  <scstep>
   <time name="total">   14.76   14.85</time>
   <energy>
    <i name="e_fr_energy">     -2.13810973 </i>
    <i name="e_wo_entrp">     -2.13810973 </i>
    <i name="e_0_energy">     -2.13810973 </i>
   </energy>
  </scstep>
  <scstep>
   <time name="total">   18.62   19.21</time>
   <energy>
    <i name="e_fr_energy">     -3.10328884 </i>
    <i name="e_wo_entrp">     -3.10328884 </i>
    <i name="e_0_energy">     -3.10328884 </i>
   </energy>
  </scstep>
  <scstep>
   <time name="total">   19.73   20.00</time>
   <energy>
    <i name="e_fr_energy">     -3.12924492 </i>
    <i name="e_wo_entrp">     -3.12924492 </i>
    <i name="e_0_energy">     -3.12924492 </i>
   </energy>
  </scstep>
  <scstep>
   <time name="total">   20.89   21.18</time>
   <energy>
    <i name="e_fr_energy">     -3.13603002 </i>
    <i name="e_wo_entrp">     -3.13603002 </i>
    <i name="e_0_energy">     -3.13603002 </i>
   </energy>
  </scstep>
  <scstep>
   <time name="total">   20.87   21.09</time>
   <energy>
    <i name="e_fr_energy">     -3.13788125 </i>
    <i name="e_wo_entrp">     -3.13788125 </i>
    <i name="e_0_energy">     -3.13788125 </i>
   </energy>
  </scstep>
  <scstep>
   <time name="total">   21.14   21.50</time>
   <energy>
    <i name="e_fr_energy">     -3.13829718 </i>
    <i name="e_wo_entrp">     -3.13829718 </i>
    <i name="e_0_energy">     -3.13829718 </i>
   </energy>
  </scstep>
  <scstep>
   <time name="total">   20.40   20.83</time>
   <energy>
    <i name="e_fr_energy">     -3.13841922 </i>
    <i name="e_wo_entrp">     -3.13841922 </i>
    <i name="e_0_energy">     -3.13841922 </i>
   </energy>
  </scstep>
  <scstep>
   <time name="total">   20.76   21.22</time>
   <energy>
    <i name="e_fr_energy">     -3.13845566 </i>
    <i name="e_wo_entrp">     -3.13845566 </i>
    <i name="e_0_energy">     -3.13845566 </i>
   </energy>
  </scstep>
  <scstep>
   <time name="total">   20.74   21.04</time>
   <energy>
    <i name="e_fr_energy">     -3.13846827 </i>
    <i name="e_wo_entrp">     -3.13846827 </i>
    <i name="e_0_energy">     -3.13846827 </i>
   </energy>
  </scstep>
  <scstep>
   <time name="total">   20.61   20.97</time>
   <energy>
    <i name="e_fr_energy">     -3.13847295 </i>
    <i name="e_wo_entrp">     -3.13847295 </i>
    <i name="e_0_energy">     -3.13847295 </i>
   </energy>
  </scstep>
  <scstep>
   <time name="total">   20.57   20.83</time>
   <energy>
    <i name="e_fr_energy">     -3.13847489 </i>
    <i name="e_wo_entrp">     -3.13847489 </i>
    <i name="e_0_energy">     -3.13847489 </i>
   </energy>
  </scstep>
  <scstep>
   <time name="total">   20.48   20.62</time>
   <energy>
    <i name="e_fr_energy">     -3.13847574 </i>
    <i name="e_wo_entrp">     -3.13847574 </i>
    <i name="e_0_energy">     -3.13847574 </i>
   </energy>
  </scstep>
  <scstep>
   <time name="total">   20.43   20.86</time>
   <energy>
    <i name="e_fr_energy">     -3.13847613 </i>
    <i name="e_wo_entrp">     -3.13847613 </i>
    <i name="e_0_energy">     -3.13847613 </i>
   </energy>
  </scstep>
  <scstep>
   <time name="total">   20.11   20.30</time>
   <energy>
    <i name="e_fr_energy">     -3.13847631 </i>
    <i name="e_wo_entrp">     -3.13847631 </i>
    <i name="e_0_energy">     -3.13847631 </i>
   </energy>
  </scstep>
  <scstep>
   <time name="total">   20.52   20.82</time>
   <energy>
    <i name="e_fr_energy">     -3.13847640 </i>
    <i name="e_wo_entrp">     -3.13847640 </i>
    <i name="e_0_energy">     -3.13847640 </i>
   </energy>
  </scstep>
  <scstep>
   <time name="total">   19.24   19.45</time>
   <energy>
    <i name="e_fr_energy">     -3.13847644 </i>
    <i name="e_wo_entrp">     -3.13847644 </i>
    <i name="e_0_energy">     -3.13847644 </i>
   </energy>
  </scstep>
  <scstep>
   <time name="total">   19.76   20.61</time>
   <energy>
    <i name="e_fr_energy">     -3.13847646 </i>
    <i name="e_wo_entrp">     -3.13847646 </i>
    <i name="e_0_energy">     -3.13847646 </i>
   </energy>
  </scstep>
  <scstep>
   <time name="total">   18.73   18.78</time>
   <energy>
    <i name="e_fr_energy">     -3.13847647 </i>
    <i name="e_wo_entrp">     -3.13847647 </i>
    <i name="e_0_energy">     -3.13847647 </i>
   </energy>
  </scstep>
  <scstep>
   <time name="total">   19.28   19.70</time>
   <energy>
    <i name="e_fr_energy">     -3.13847648 </i>
    <i name="e_wo_entrp">     -3.13847648 </i>
    <i name="e_0_energy">     -3.13847648 </i>
   </energy>
  </scstep>
  <varray name="epsilon_rpa" >
   <v>       5.92963780      -0.00000138       0.00000028 </v>
   <v>      -0.00000062       5.70935998       0.00000076 </v>
   <v>       0.00000004       0.00000063       5.65988130 </v>
  </varray>
  <scstep>
   <time name="total">   14.98   15.05</time>
   <energy>
    <i name="e_fr_energy">     -2.12288110 </i>
    <i name="e_wo_entrp">     -2.12288110 </i>
    <i name="e_0_energy">     -2.12288110 </i>
   </energy>
  </scstep>
  <scstep>
   <time name="total">   19.72   20.23</time>
   <energy>
    <i name="e_fr_energy">     -3.28817105 </i>
    <i name="e_wo_entrp">     -3.28817105 </i>
    <i name="e_0_energy">     -3.28817105 </i>
   </energy>
  </scstep>
  <scstep>
   <time name="total">   19.21   19.37</time>
   <energy>
    <i name="e_fr_energy">     -3.24540378 </i>
    <i name="e_wo_entrp">     -3.24540378 </i>
    <i name="e_0_energy">     -3.24540378 </i>
   </energy>
  </scstep>
  <scstep>
   <time name="total">   20.98   21.49</time>
   <energy>
    <i name="e_fr_energy">     -3.31009378 </i>
    <i name="e_wo_entrp">     -3.31009378 </i>
    <i name="e_0_energy">     -3.31009378 </i>
   </energy>
  </scstep>
  <scstep>
   <time name="total">   20.34   20.34</time>
   <energy>
    <i name="e_fr_energy">     -3.37268892 </i>
    <i name="e_wo_entrp">     -3.37268892 </i>
    <i name="e_0_energy">     -3.37268892 </i>
   </energy>
  </scstep>
  <scstep>
   <time name="total">   21.13   21.62</time>
   <energy>
    <i name="e_fr_energy">     -3.41818218 </i>
    <i name="e_wo_entrp">     -3.41818218 </i>
    <i name="e_0_energy">     -3.41818218 </i>
   </energy>
  </scstep>
  <scstep>
   <time name="total">   20.27   20.33</time>
   <energy>
    <i name="e_fr_energy">     -3.44414894 </i>
    <i name="e_wo_entrp">     -3.44414894 </i>
    <i name="e_0_energy">     -3.44414894 </i>
   </energy>
  </scstep>
  <scstep>
   <time name="total">   21.81   22.18</time>
   <energy>
    <i name="e_fr_energy">     -3.44903558 </i>
    <i name="e_wo_entrp">     -3.44903558 </i>
    <i name="e_0_energy">     -3.44903558 </i>
   </energy>
  </scstep>
  <scstep>
   <time name="total">   20.40   20.69</time>
   <energy>
    <i name="e_fr_energy">     -3.45435452 </i>
    <i name="e_wo_entrp">     -3.45435452 </i>
    <i name="e_0_energy">     -3.45435452 </i>
   </energy>
  </scstep>
  <scstep>
   <time name="total">   22.08   22.39</time>
   <energy>
    <i name="e_fr_energy">     -3.45415202 </i>
    <i name="e_wo_entrp">     -3.45415202 </i>
    <i name="e_0_energy">     -3.45415202 </i>
   </energy>
  </scstep>
  <scstep>
   <time name="total">   20.65   21.01</time>
   <energy>
    <i name="e_fr_energy">     -3.45307920 </i>
    <i name="e_wo_entrp">     -3.45307920 </i>
    <i name="e_0_energy">     -3.45307920 </i>
   </energy>
  </scstep>
  <scstep>
   <time name="total">   21.87   22.58</time>
   <energy>
    <i name="e_fr_energy">     -3.45259832 </i>
    <i name="e_wo_entrp">     -3.45259832 </i>
    <i name="e_0_energy">     -3.45259832 </i>
   </energy>
  </scstep>
  <scstep>
   <time name="total">   20.75   20.89</time>
   <energy>
    <i name="e_fr_energy">     -3.45228632 </i>
    <i name="e_wo_entrp">     -3.45228632 </i>
    <i name="e_0_energy">     -3.45228632 </i>
   </energy>
  </scstep>
  <scstep>
   <time name="total">   20.42   20.64</time>
   <energy>
    <i name="e_fr_energy">     -3.45228408 </i>
    <i name="e_wo_entrp">     -3.45228408 </i>
    <i name="e_0_energy">     -3.45228408 </i>
   </energy>
  </scstep>
  <scstep>
   <time name="total">   20.61   20.85</time>
   <energy>
    <i name="e_fr_energy">     -3.45215505 </i>
    <i name="e_wo_entrp">     -3.45215505 </i>
    <i name="e_0_energy">     -3.45215505 </i>
   </energy>
  </scstep>
  <scstep>
   <time name="total">   21.79   22.22</time>
   <energy>
    <i name="e_fr_energy">     -3.45201672 </i>
    <i name="e_wo_entrp">     -3.45201672 </i>
    <i name="e_0_energy">     -3.45201672 </i>
   </energy>
  </scstep>
  <scstep>
   <time name="total">   21.78   22.34</time>
   <energy>
    <i name="e_fr_energy">     -3.45189455 </i>
    <i name="e_wo_entrp">     -3.45189455 </i>
    <i name="e_0_energy">     -3.45189455 </i>
   </energy>
  </scstep>
  <scstep>
   <time name="total">   21.89   22.31</time>
   <energy>
    <i name="e_fr_energy">     -3.45176078 </i>
    <i name="e_wo_entrp">     -3.45176078 </i>
    <i name="e_0_energy">     -3.45176078 </i>
   </energy>
  </scstep>
  <scstep>
   <time name="total">   21.25   21.37</time>
   <energy>
    <i name="e_fr_energy">     -3.45167673 </i>
    <i name="e_wo_entrp">     -3.45167673 </i>
    <i name="e_0_energy">     -3.45167673 </i>
   </energy>
  </scstep>
  <scstep>
   <time name="total">   22.25   22.66</time>
   <energy>
    <i name="e_fr_energy">     -3.45158458 </i>
    <i name="e_wo_entrp">     -3.45158458 </i>
    <i name="e_0_energy">     -3.45158458 </i>
   </energy>
  </scstep>
  <scstep>
   <time name="total">   21.82   22.16</time>
   <energy>
    <i name="e_fr_energy">     -3.45153279 </i>
    <i name="e_wo_entrp">     -3.45153279 </i>
    <i name="e_0_energy">     -3.45153279 </i>
   </energy>
  </scstep>
  <scstep>
   <time name="total">   21.94   22.39</time>
   <energy>
    <i name="e_fr_energy">     -3.45148514 </i>
    <i name="e_wo_entrp">     -3.45148514 </i>
    <i name="e_0_energy">     -3.45148514 </i>
   </energy>
  </scstep>
  <scstep>
   <time name="total">   15.99   16.70</time>
   <energy>
    <i name="e_fr_energy">     -2.19092122 </i>
    <i name="e_wo_entrp">     -2.19092122 </i>
    <i name="e_0_energy">     -2.19092122 </i>
   </energy>
  </scstep>
  <scstep>
   <time name="total">   19.09   19.10</time>
   <energy>
    <i name="e_fr_energy">     -3.13842069 </i>
    <i name="e_wo_entrp">     -3.13842069 </i>
    <i name="e_0_energy">     -3.13842069 </i>
   </energy>
  </scstep>
  <scstep>
   <time name="total">   20.24   20.56</time>
   <energy>
    <i name="e_fr_energy">     -3.06826540 </i>
    <i name="e_wo_entrp">     -3.06826540 </i>
    <i name="e_0_energy">     -3.06826540 </i>
   </energy>
  </scstep>
  <scstep>
   <time name="total">   20.16   20.64</time>
   <energy>
    <i name="e_fr_energy">     -3.13817274 </i>
    <i name="e_wo_entrp">     -3.13817274 </i>
    <i name="e_0_energy">     -3.13817274 </i>
   </energy>
  </scstep>
  <scstep>
   <time name="total">   21.26   21.91</time>
   <energy>
    <i name="e_fr_energy">     -3.20275488 </i>
    <i name="e_wo_entrp">     -3.20275488 </i>
    <i name="e_0_energy">     -3.20275488 </i>
   </energy>
  </scstep>
  <scstep>
   <time name="total">   20.51   20.64</time>
   <energy>
    <i name="e_fr_energy">     -3.25287190 </i>
    <i name="e_wo_entrp">     -3.25287190 </i>
    <i name="e_0_energy">     -3.25287190 </i>
   </energy>
  </scstep>
  <scstep>
   <time name="total">   21.64   22.28</time>
   <energy>
    <i name="e_fr_energy">     -3.25825301 </i>
    <i name="e_wo_entrp">     -3.25825301 </i>
    <i name="e_0_energy">     -3.25825301 </i>
   </energy>
  </scstep>
  <scstep>
   <time name="total">   20.51   21.19</time>
   <energy>
    <i name="e_fr_energy">     -3.26688941 </i>
    <i name="e_wo_entrp">     -3.26688941 </i>
    <i name="e_0_energy">     -3.26688941 </i>
   </energy>
  </scstep>
  <scstep>
   <time name="total">   21.20   21.48</time>
   <energy>
    <i name="e_fr_energy">     -3.27375348 </i>
    <i name="e_wo_entrp">     -3.27375348 </i>
    <i name="e_0_energy">     -3.27375348 </i>
   </energy>
  </scstep>
  <scstep>
   <time name="total">   20.31   20.46</time>
   <energy>
    <i name="e_fr_energy">     -3.27808296 </i>
    <i name="e_wo_entrp">     -3.27808296 </i>
    <i name="e_0_energy">     -3.27808296 </i>
   </energy>
  </scstep>
  <scstep>
   <time name="total">   19.80   20.14</time>
   <energy>
    <i name="e_fr_energy">     -3.28663031 </i>
    <i name="e_wo_entrp">     -3.28663031 </i>
    <i name="e_0_energy">     -3.28663031 </i>
   </energy>
  </scstep>
  <scstep>
   <time name="total">   19.84   20.15</time>
   <energy>
    <i name="e_fr_energy">     -3.28880634 </i>
    <i name="e_wo_entrp">     -3.28880634 </i>
    <i name="e_0_energy">     -3.28880634 </i>
   </energy>
  </scstep>
  <scstep>
   <time name="total">   21.66   21.82</time>
   <energy>
    <i name="e_fr_energy">     -3.28875716 </i>
    <i name="e_wo_entrp">     -3.28875716 </i>
    <i name="e_0_energy">     -3.28875716 </i>
   </energy>
  </scstep>
  <scstep>
   <time name="total">   21.74   21.97</time>
   <energy>
    <i name="e_fr_energy">     -3.28886673 </i>
    <i name="e_wo_entrp">     -3.28886673 </i>
    <i name="e_0_energy">     -3.28886673 </i>
   </energy>
  </scstep>
  <scstep>
   <time name="total">   21.26   21.68</time>
   <energy>
    <i name="e_fr_energy">     -3.28934434 </i>
    <i name="e_wo_entrp">     -3.28934434 </i>
    <i name="e_0_energy">     -3.28934434 </i>
   </energy>
  </scstep>
  <scstep>
   <time name="total">   21.44   21.82</time>
   <energy>
    <i name="e_fr_energy">     -3.28946207 </i>
    <i name="e_wo_entrp">     -3.28946207 </i>
    <i name="e_0_energy">     -3.28946207 </i>
   </energy>
  </scstep>
  <scstep>
   <time name="total">   19.94   20.21</time>
   <energy>
    <i name="e_fr_energy">     -3.28947970 </i>
    <i name="e_wo_entrp">     -3.28947970 </i>
    <i name="e_0_energy">     -3.28947970 </i>
   </energy>
  </scstep>
  <scstep>
   <time name="total">   20.67   21.07</time>
   <energy>
    <i name="e_fr_energy">     -3.28955604 </i>
    <i name="e_wo_entrp">     -3.28955604 </i>
    <i name="e_0_energy">     -3.28955604 </i>
   </energy>
  </scstep>
  <scstep>
   <time name="total">   20.91   21.24</time>
   <energy>
    <i name="e_fr_energy">     -3.28964779 </i>
    <i name="e_wo_entrp">     -3.28964779 </i>
    <i name="e_0_energy">     -3.28964779 </i>
   </energy>
  </scstep>
  <scstep>
   <time name="total">   21.71   21.91</time>
   <energy>
    <i name="e_fr_energy">     -3.28967777 </i>
    <i name="e_wo_entrp">     -3.28967777 </i>
    <i name="e_0_energy">     -3.28967777 </i>
   </energy>
  </scstep>
  <scstep>
   <time name="total">   22.13   22.48</time>
   <energy>
[...]
       <r>     2.7616     7.3731    63.1844 </r>
       <r>     3.0067     6.4776    64.7718 </r>
       <r>     3.2517     7.2224    66.5417 </r>
       <r>     3.4968     5.2835    67.8365 </r>
       <r>     3.7419     7.3404    69.6354 </r>
       <r>     3.9869     4.6166    70.7668 </r>
       <r>     4.2320     2.8956    71.4764 </r>
       <r>     4.4771     1.9721    71.9597 </r>
       <r>     4.7221     0.1646    72.0000 </r>
       <r>     4.9672     0.0000    72.0000 </r>
       <r>     5.2122     0.0000    72.0000 </r>
       <r>     5.4573     0.0000    72.0000 </r>
       <r>     5.7024     0.0000    72.0000 </r>
       <r>     5.9474     0.0000    72.0000 </r>
       <r>     6.1925     0.0000    72.0000 </r>
       <r>     6.4376     0.0000    72.0000 </r>
       <r>     6.6826     0.0000    72.0000 </r>
       <r>     6.9277     0.0000    72.0000 </r>
       <r>     7.1728     0.0392    72.0096 </r>
       <r>     7.4178     0.0016    72.0100 </r>
       <r>     7.6629     0.2386    72.0685 </r>
       <r>     7.9080     0.0310    72.0761 </r>
       <r>     8.1530     0.9628    72.3120 </r>
       <r>     8.3981     1.2340    72.6144 </r>
       <r>     8.6431     2.2384    73.1630 </r>
       <r>     8.8882     3.0673    73.9147 </r>
       <r>     9.1333     3.5914    74.7948 </r>
       <r>     9.3783     4.4227    75.8786 </r>
       <r>     9.6234     2.5532    76.5043 </r>
       <r>     9.8685     4.1580    77.5233 </r>
       <r>    10.1135     1.8540    77.9776 </r>
       <r>    10.3586     2.9525    78.7012 </r>
       <r>    10.6037     4.8109    79.8802 </r>
       <r>    10.8487     5.5370    81.2371 </r>
       <r>    11.0938     4.7556    82.4025 </r>
       <r>    11.3388     5.7637    83.8150 </r>
       <r>    11.5839     4.0638    84.8109 </r>
       <r>    11.8290     5.3778    86.1288 </r>
       <r>    12.0740     5.1762    87.3973 </r>
       <r>    12.3191     3.8112    88.3313 </r>
       <r>    12.5642     4.3142    89.3885 </r>
       <r>    12.8092     3.7069    90.2970 </r>
       <r>    13.0543     4.2573    91.3403 </r>
       <r>    13.2994     3.5665    92.2143 </r>
       <r>    13.5444     4.2668    93.2599 </r>
       <r>    13.7895     4.9165    94.4648 </r>
       <r>    14.0346     3.0763    95.2187 </r>
       <r>    14.2796     1.5389    95.5958 </r>
       <r>    14.5247     1.1180    95.8698 </r>
       <r>    14.7697     0.2849    95.9396 </r>
       <r>    15.0148     0.2463    96.0000 </r>
       <r>    15.2599     0.0001    96.0000 </r>
       <r>    15.5049     0.0000    96.0000 </r>
       <r>    15.7500     0.0000    96.0000 </r>
       <r>    15.9951     0.0000    96.0000 </r>
       <r>    16.2401     0.0000    96.0000 </r>
       <r>    16.4852     0.0000    96.0000 </r>
       <r>    16.7303     0.0000    96.0000 </r>
       <r>    16.9753     0.0000    96.0000 </r>
       <r>    17.2204     0.0000    96.0000 </r>
       <r>    17.4655     0.0000    96.0000 </r>
       <r>    17.7105     0.0000    96.0000 </r>
       <r>    17.9556     0.0000    96.0000 </r>
       <r>    18.2006     0.0000    96.0000 </r>
       <r>    18.4457     0.0000    96.0000 </r>
       <r>    18.6908     0.0000    96.0000 </r>
      </set>
      <set comment="spin 2">
       <r>   -54.8285     0.0000     0.0000 </r>
       <r>   -54.5834     0.0000     0.0000 </r>
       <r>   -54.3383     0.0000     0.0000 </r>
       <r>   -54.0933     0.0000     0.0000 </r>
       <r>   -53.8482     0.0000     0.0000 </r>
       <r>   -53.6031     0.0000     0.0000 </r>
       <r>   -53.3581     0.0000     0.0000 </r>
       <r>   -53.1130     0.0000     0.0000 </r>
       <r>   -52.8680     0.0000     0.0000 </r>
       <r>   -52.6229     0.0000     0.0000 </r>
       <r>   -52.3778     0.0000     0.0000 </r>
       <r>   -52.1328     0.0000     0.0000 </r>
       <r>   -51.8877     0.0000     0.0000 </r>
       <r>   -51.6426     0.0000     0.0000 </r>
       <r>   -51.3976     0.0000     0.0000 </r>
       <r>   -51.1525     0.0000     0.0000 </r>
       <r>   -50.9074     0.0000     0.0000 </r>
       <r>   -50.6624     0.0000     0.0000 </r>
       <r>   -50.4173     0.0000     0.0000 </r>
       <r>   -50.1722     0.0000     0.0000 </r>
       <r>   -49.9272     0.0000     0.0000 </r>
       <r>   -49.6821     0.0000     0.0000 </r>
       <r>   -49.4371     0.0000     0.0000 </r>
       <r>   -49.1920     0.0000     0.0000 </r>
       <r>   -48.9469     0.0000     0.0000 </r>
       <r>   -48.7019     0.0000     0.0000 </r>
       <r>   -48.4568     0.0000     0.0000 </r>
       <r>   -48.2117     0.0000     0.0000 </r>
       <r>   -47.9667     0.0000     0.0000 </r>
       <r>   -47.7216     0.0000     0.0000 </r>
       <r>   -47.4765     0.0000     0.0000 </r>
       <r>   -47.2315     0.0000     0.0000 </r>
       <r>   -46.9864     0.0000     0.0000 </r>
       <r>   -46.7414     8.2734     2.0275 </r>
       <r>   -46.4963     8.0516     4.0007 </r>
       <r>   -46.2512    32.6101    11.9922 </r>
       <r>   -46.0062     0.0317    12.0000 </r>
       <r>   -45.7611     0.0000    12.0000 </r>
       <r>   -45.5160     0.0000    12.0000 </r>
       <r>   -45.2710     0.0000    12.0000 </r>
       <r>   -45.0259     0.0000    12.0000 </r>
       <r>   -44.7808     0.0000    12.0000 </r>
       <r>   -44.5358     0.0000    12.0000 </r>
       <r>   -44.2907     0.0000    12.0000 </r>
       <r>   -44.0456     0.0000    12.0000 </r>
       <r>   -43.8006     0.0000    12.0000 </r>
       <r>   -43.5555     0.0000    12.0000 </r>
       <r>   -43.3105     0.0000    12.0000 </r>
       <r>   -43.0654     0.0000    12.0000 </r>
       <r>   -42.8203     0.0000    12.0000 </r>
       <r>   -42.5753     0.0000    12.0000 </r>
       <r>   -42.3302     0.0000    12.0000 </r>
       <r>   -42.0851     0.0000    12.0000 </r>
       <r>   -41.8401     0.0000    12.0000 </r>
       <r>   -41.5950     0.0000    12.0000 </r>
       <r>   -41.3499     0.0000    12.0000 </r>
       <r>   -41.1049     0.0000    12.0000 </r>
       <r>   -40.8598     0.0000    12.0000 </r>
       <r>   -40.6147     0.0000    12.0000 </r>
       <r>   -40.3697     2.3168    12.5678 </r>
       <r>   -40.1246    30.2714    19.9862 </r>
       <r>   -39.8796     0.0563    20.0000 </r>
       <r>   -39.6345     0.0000    20.0000 </r>
       <r>   -39.3894     0.0000    20.0000 </r>
       <r>   -39.1444     0.0000    20.0000 </r>
       <r>   -38.8993     0.0000    20.0000 </r>
       <r>   -38.6542     0.0000    20.0000 </r>
       <r>   -38.4092     0.0000    20.0000 </r>
       <r>   -38.1641     0.0000    20.0000 </r>
       <r>   -37.9190     0.0000    20.0000 </r>
       <r>   -37.6740     0.0000    20.0000 </r>
       <r>   -37.4289     0.0000    20.0000 </r>
       <r>   -37.1839     0.0000    20.0000 </r>
       <r>   -36.9388     0.0000    20.0000 </r>
       <r>   -36.6937     0.0000    20.0000 </r>
       <r>   -36.4487     0.0000    20.0000 </r>
       <r>   -36.2036     0.0000    20.0000 </r>
       <r>   -35.9585     0.0000    20.0000 </r>
       <r>   -35.7135     0.0000    20.0000 </r>
       <r>   -35.4684     0.0000    20.0000 </r>
       <r>   -35.2233     0.0000    20.0000 </r>
       <r>   -34.9783     0.0000    20.0000 </r>
       <r>   -34.7332     0.0000    20.0000 </r>
       <r>   -34.4881     0.0000    20.0000 </r>
       <r>   -34.2431     0.0000    20.0000 </r>
       <r>   -33.9980     0.0000    20.0000 </r>
       <r>   -33.7530     0.0000    20.0000 </r>
       <r>   -33.5079     0.0000    20.0000 </r>
       <r>   -33.2628     0.0000    20.0000 </r>
       <r>   -33.0178     0.0000    20.0000 </r>
       <r>   -32.7727     0.0000    20.0000 </r>
       <r>   -32.5276     0.0000    20.0000 </r>
       <r>   -32.2826     0.0000    20.0000 </r>
       <r>   -32.0375     0.0000    20.0000 </r>
       <r>   -31.7924     0.0000    20.0000 </r>
       <r>   -31.5474     0.0000    20.0000 </r>
       <r>   -31.3023     0.0000    20.0000 </r>
       <r>   -31.0572     0.0000    20.0000 </r>
       <r>   -30.8122     0.0000    20.0000 </r>
       <r>   -30.5671     0.0000    20.0000 </r>
       <r>   -30.3221     0.0000    20.0000 </r>
       <r>   -30.0770     0.0000    20.0000 </r>
       <r>   -29.8319     0.0000    20.0000 </r>
       <r>   -29.5869     0.0000    20.0000 </r>
       <r>   -29.3418     0.0000    20.0000 </r>
       <r>   -29.0967     0.0000    20.0000 </r>
       <r>   -28.8517     0.0000    20.0000 </r>
       <r>   -28.6066     0.0000    20.0000 </r>
       <r>   -28.3615     0.0000    20.0000 </r>
       <r>   -28.1165     0.0000    20.0000 </r>
       <r>   -27.8714     0.0000    20.0000 </r>
       <r>   -27.6263     0.0000    20.0000 </r>
       <r>   -27.3813     0.0000    20.0000 </r>
       <r>   -27.1362     0.0000    20.0000 </r>
       <r>   -26.8912     0.0000    20.0000 </r>
       <r>   -26.6461     0.0000    20.0000 </r>
       <r>   -26.4010     0.0000    20.0000 </r>
       <r>   -26.1560     0.0000    20.0000 </r>
       <r>   -25.9109     0.0000    20.0000 </r>
       <r>   -25.6658     0.0000    20.0000 </r>
       <r>   -25.4208     0.0000    20.0000 </r>
       <r>   -25.1757     0.0000    20.0000 </r>
       <r>   -24.9306     0.0000    20.0000 </r>
       <r>   -24.6856     0.0000    20.0000 </r>
       <r>   -24.4405     0.0000    20.0000 </r>
       <r>   -24.1955     0.0000    20.0000 </r>
       <r>   -23.9504     0.0000    20.0000 </r>
       <r>   -23.7053     0.0000    20.0000 </r>
       <r>   -23.4603     0.0000    20.0000 </r>
       <r>   -23.2152     0.0000    20.0000 </r>
       <r>   -22.9701     0.0000    20.0000 </r>
       <r>   -22.7251     0.0000    20.0000 </r>
       <r>   -22.4800     0.0000    20.0000 </r>
       <r>   -22.2349     0.0000    20.0000 </r>
       <r>   -21.9899     0.0000    20.0000 </r>
       <r>   -21.7448     0.0000    20.0000 </r>
       <r>   -21.4997     0.0000    20.0000 </r>
       <r>   -21.2547     0.0000    20.0000 </r>
       <r>   -21.0096     0.0000    20.0000 </r>
       <r>   -20.7646     0.0000    20.0000 </r>
       <r>   -20.5195     0.0000    20.0000 </r>
       <r>   -20.2744     0.0000    20.0000 </r>
       <r>   -20.0294     0.0000    20.0000 </r>
       <r>   -19.7843     0.0000    20.0000 </r>
       <r>   -19.5392     0.0000    20.0000 </r>
       <r>   -19.2942     0.0000    20.0000 </r>
       <r>   -19.0491     0.0000    20.0000 </r>
       <r>   -18.8040     0.0000    20.0000 </r>
       <r>   -18.5590     0.0000    20.0000 </r>
       <r>   -18.3139     0.0000    20.0000 </r>
       <r>   -18.0688     0.0000    20.0000 </r>
       <r>   -17.8238     0.0000    20.0000 </r>
       <r>   -17.5787     0.0000    20.0000 </r>
       <r>   -17.3337     0.0000    20.0000 </r>
       <r>   -17.0886     0.0000    20.0000 </r>
       <r>   -16.8435     0.0000    20.0000 </r>
       <r>   -16.5985     0.0000    20.0000 </r>
       <r>   -16.3534     0.0000    20.0000 </r>
       <r>   -16.1083     0.0000    20.0000 </r>
       <r>   -15.8633     0.0000    20.0000 </r>
       <r>   -15.6182     0.0000    20.0000 </r>
       <r>   -15.3731     0.0000    20.0000 </r>
       <r>   -15.1281     0.0000    20.0000 </r>
       <r>   -14.8830     0.0000    20.0000 </r>
       <r>   -14.6379     0.0000    20.0000 </r>
       <r>   -14.3929     0.0000    20.0000 </r>
       <r>   -14.1478     0.0000    20.0000 </r>
       <r>   -13.9028     0.0000    20.0000 </r>
       <r>   -13.6577     0.0000    20.0000 </r>
       <r>   -13.4126     0.0000    20.0000 </r>
       <r>   -13.1676     2.8645    20.7020 </r>
       <r>   -12.9225    13.0537    23.9010 </r>
       <r>   -12.6774     0.4041    24.0000 </r>
       <r>   -12.4324     0.0000    24.0000 </r>
       <r>   -12.1873     0.0000    24.0000 </r>
       <r>   -11.9422     0.0000    24.0000 </r>
       <r>   -11.6972     0.0000    24.0000 </r>
       <r>   -11.4521     0.0000    24.0000 </r>
       <r>   -11.2071     0.0000    24.0000 </r>
       <r>   -10.9620     0.0000    24.0000 </r>
       <r>   -10.7169     0.0000    24.0000 </r>
       <r>   -10.4719     0.0000    24.0000 </r>
       <r>   -10.2268     0.0000    24.0000 </r>
       <r>    -9.9817     0.0000    24.0000 </r>
       <r>    -9.7367     0.0000    24.0000 </r>
       <r>    -9.4916     0.0000    24.0000 </r>
       <r>    -9.2465     0.0000    24.0000 </r>
       <r>    -9.0015     0.0000    24.0000 </r>
       <r>    -8.7564     0.0000    24.0000 </r>
       <r>    -8.5113     0.0000    24.0000 </r>
       <r>    -8.2663     0.0000    24.0000 </r>
       <r>    -8.0212     0.0000    24.0000 </r>
       <r>    -7.7762     0.0000    24.0000 </r>
       <r>    -7.5311     0.0004    24.0001 </r>
       <r>    -7.2860     3.7525    24.9197 </r>
       <r>    -7.0410     8.0678    26.8968 </r>
       <r>    -6.7959     4.2762    27.9448 </r>
       <r>    -6.5508     0.2252    28.0000 </r>
       <r>    -6.3058     0.0000    28.0000 </r>
       <r>    -6.0607     0.0000    28.0000 </r>
       <r>    -5.8156     0.0000    28.0000 </r>
       <r>    -5.5706     0.0000    28.0000 </r>
       <r>    -5.3255     0.0000    28.0000 </r>
       <r>    -5.0804     0.0000    28.0000 </r>
       <r>    -4.8354     0.0000    28.0000 </r>
       <r>    -4.5903     0.0000    28.0000 </r>
       <r>    -4.3453     0.0000    28.0000 </r>
       <r>    -4.1002     0.0000    28.0000 </r>
       <r>    -3.8551     0.0000    28.0000 </r>
       <r>    -3.6101     0.0000    28.0000 </r>
       <r>    -3.3650     0.0000    28.0000 </r>
       <r>    -3.1199     0.0000    28.0000 </r>
       <r>    -2.8749     0.0000    28.0000 </r>
       <r>    -2.6298     0.0000    28.0000 </r>
       <r>    -2.3847     0.0000    28.0000 </r>
       <r>    -2.1397     0.0000    28.0000 </r>
       <r>    -1.8946     0.0000    28.0000 </r>
       <r>    -1.6496     0.0000    28.0000 </r>
       <r>    -1.4045     0.0000    28.0000 </r>
       <r>    -1.1594     0.0000    28.0000 </r>
       <r>    -0.9144     0.5815    28.1425 </r>
       <r>    -0.6693     4.2903    29.1939 </r>
       <r>    -0.4242     2.4956    29.8055 </r>
       <r>    -0.1792     1.5323    30.1810 </r>
       <r>     0.0659     2.6420    30.8284 </r>
       <r>     0.3110     4.2013    31.8580 </r>
       <r>     0.5560    10.5474    34.4428 </r>
       <r>     0.8011     8.6180    36.5548 </r>
       <r>     1.0462     9.4409    38.8684 </r>
       <r>     1.2912     5.2501    40.1550 </r>
       <r>     1.5363     3.6768    41.0561 </r>
       <r>     1.7813     6.5138    42.6524 </r>
       <r>     2.0264     5.7940    44.0723 </r>
       <r>     2.2715     4.1655    45.0931 </r>
       <r>     2.5165     5.3286    46.3990 </r>
       <r>     2.7616     8.2949    48.4317 </r>
       <r>     3.0067    10.5981    51.0289 </r>
       <r>     3.2517     3.7301    51.9430 </r>
       <r>     3.4968     2.8026    52.6299 </r>
       <r>     3.7419     5.9761    54.0944 </r>
       <r>     3.9869     6.7955    55.7597 </r>
       <r>     4.2320     0.9804    56.0000 </r>
       <r>     4.4771     0.0000    56.0000 </r>
       <r>     4.7221     0.0000    56.0000 </r>
       <r>     4.9672     0.0000    56.0000 </r>
       <r>     5.2122     0.0000    56.0000 </r>
       <r>     5.4573     0.0000    56.0000 </r>
       <r>     5.7024     0.0000    56.0000 </r>
       <r>     5.9474     0.0000    56.0000 </r>
       <r>     6.1925     0.0000    56.0000 </r>
       <r>     6.4376     0.0000    56.0000 </r>
       <r>     6.6826     1.5022    56.3681 </r>
       <r>     6.9277     8.8897    58.5467 </r>
       <r>     7.1728     9.3044    60.8269 </r>
       <r>     7.4178     6.8956    62.5167 </r>
       <r>     7.6629     8.2410    64.5363 </r>
       <r>     7.9080    10.9226    67.2131 </r>
       <r>     8.1530    10.4669    69.7781 </r>
       <r>     8.3981     5.9546    71.2374 </r>
       <r>     8.6431     3.1712    72.0145 </r>
       <r>     8.8882     0.7243    72.1920 </r>
       <r>     9.1333     0.8976    72.4120 </r>
       <r>     9.3783     2.6176    73.0535 </r>
       <r>     9.6234     3.0690    73.8056 </r>
       <r>     9.8685     4.2149    74.8385 </r>
       <r>    10.1135     4.9175    76.0436 </r>
       <r>    10.3586     4.5950    77.1696 </r>
       <r>    10.6037     2.8213    77.8611 </r>
       <r>    10.8487     3.7233    78.7735 </r>
       <r>    11.0938     4.2288    79.8098 </r>
       <r>    11.3388     3.8720    80.7587 </r>
       <r>    11.5839     3.1957    81.5419 </r>
       <r>    11.8290     6.5782    83.1540 </r>
       <r>    12.0740     6.1049    84.6501 </r>
       <r>    12.3191     7.1527    86.4029 </r>
       <r>    12.5642     4.1045    87.4088 </r>
       <r>    12.8092     4.0277    88.3958 </r>
       <r>    13.0543     4.2137    89.4285 </r>
       <r>    13.2994     3.7168    90.3393 </r>
       <r>    13.5444     5.0224    91.5701 </r>
       <r>    13.7895     4.3898    92.6459 </r>
       <r>    14.0346     4.7935    93.8206 </r>
       <r>    14.2796     3.8027    94.7525 </r>
       <r>    14.5247     2.8458    95.4499 </r>
       <r>    14.7697     0.8694    95.6630 </r>
       <r>    15.0148     1.0339    95.9163 </r>
       <r>    15.2599     0.1719    95.9585 </r>
       <r>    15.5049     0.1695    96.0000 </r>
       <r>    15.7500     0.0000    96.0000 </r>
       <r>    15.9951     0.0000    96.0000 </r>
       <r>    16.2401     0.0000    96.0000 </r>
       <r>    16.4852     0.0000    96.0000 </r>
       <r>    16.7303     0.0000    96.0000 </r>
       <r>    16.9753     0.0000    96.0000 </r>
       <r>    17.2204     0.0000    96.0000 </r>
       <r>    17.4655     0.0000    96.0000 </r>
       <r>    17.7105     0.0000    96.0000 </r>
       <r>    17.9556     0.0000    96.0000 </r>
       <r>    18.2006     0.0000    96.0000 </r>
       <r>    18.4457     0.0000    96.0000 </r>
       <r>    18.6908     0.0000    96.0000 </r>
      </set>
     </set>
    </array>
   </total>
  </dos>
 </calculation>
 <structure name="finalpos" >
  <crystal>
   <varray name="basis" >
    <v>       7.71241101       0.00000000       0.00000000 </v>
    <v>       0.00000000       5.60512121       0.00000000 </v>
    <v>       0.00000000       0.00000000       5.63851349 </v>
   </varray>
   <i name="volume">    243.74729138 </i>
   <varray name="rec_basis" >
    <v>       0.12966114       0.00000000       0.00000000 </v>
    <v>       0.00000000       0.17840827       0.00000000 </v>
    <v>       0.00000000       0.00000000       0.17735171 </v>
   </varray>
  </crystal>
  <varray name="positions" >
   <v>       0.25000000       0.50000000       0.93502019 </v>
   <v>       0.25000000       0.00000000       0.56497981 </v>
   <v>       0.75000000       0.50000000       0.06497981 </v>
   <v>       0.75000000       0.00000000       0.43502019 </v>
   <v>       0.53848136       0.75000000       0.75000000 </v>
   <v>       0.46151864       0.25000000       0.25000000 </v>
   <v>       0.03848136       0.75000000       0.25000000 </v>
   <v>       0.96151864       0.25000000       0.75000000 </v>
   <v>       0.97213295       0.75000000       0.75000000 </v>
   <v>       0.02786705       0.25000000       0.25000000 </v>
   <v>       0.47213295       0.75000000       0.25000000 </v>
   <v>       0.52786705       0.25000000       0.75000000 </v>
   <v>       0.25000000       0.00000000       0.00212106 </v>
   <v>       0.25000000       0.50000000       0.49787894 </v>
   <v>       0.75000000       0.00000000       0.99787894 </v>
   <v>       0.75000000       0.50000000       0.50212106 </v>
   <v>       0.00000000       0.50000000       0.00000000 </v>
   <v>       0.00000000       0.00000000       0.50000000 </v>
   <v>       0.50000000       0.50000000       0.00000000 </v>
   <v>       0.50000000       0.00000000       0.50000000 </v>
  </varray>
 </structure>
</modeling>
