 160 160   0   0
  0.1218736E+02  0.1542482E-08  0.1121024E-08  0.1127703E-08  0.5000000E-15
  1.000000000000000E-004
  CAR 
 unknown system                          
     16.86148645    -54.74506669  301      4.95689699      1.00000000
    -54.745  0.0000E+00  0.0000E+00  0.0000E+00  0.0000E+00
    -54.506  0.0000E+00  0.0000E+00  0.0000E+00  0.0000E+00
    -54.268  0.0000E+00  0.0000E+00  0.0000E+00  0.0000E+00
    -54.029  0.0000E+00  0.0000E+00  0.0000E+00  0.0000E+00
    -53.790  0.0000E+00  0.0000E+00  0.0000E+00  0.0000E+00
    -53.552  0.0000E+00  0.0000E+00  0.0000E+00  0.0000E+00
    -53.313  0.0000E+00  0.0000E+00  0.0000E+00  0.0000E+00
    -53.074  0.0000E+00  0.0000E+00  0.0000E+00  0.0000E+00
    -52.836  0.0000E+00  0.0000E+00  0.0000E+00  0.0000E+00
    -52.597  0.0000E+00  0.0000E+00  0.0000E+00  0.0000E+00
    -52.358  0.0000E+00  0.0000E+00  0.0000E+00  0.0000E+00
    -52.119  0.0000E+00  0.0000E+00  0.0000E+00  0.0000E+00
    -51.881  0.0000E+00  0.0000E+00  0.0000E+00  0.0000E+00
    -51.642  0.6871E-03  0.0000E+00  0.1640E-03  0.0000E+00
    -51.403  0.1328E+03  0.0000E+00  0.3169E+02  0.0000E+00
    -51.165  0.1313E+01  0.0000E+00  0.3200E+02  0.0000E+00
    -50.926  0.0000E+00  0.0000E+00  0.3200E+02  0.0000E+00
    -50.687  0.0000E+00  0.0000E+00  0.3200E+02  0.0000E+00
    -50.449  0.0000E+00  0.0000E+00  0.3200E+02  0.0000E+00
    -50.210  0.7632E-01  0.0000E+00  0.3202E+02  0.0000E+00
    -49.971  0.2659E+03  0.0000E+00  0.9548E+02  0.0000E+00
    -49.733  0.2197E+01  0.0000E+00  0.9600E+02  0.0000E+00
    -49.494  0.0000E+00  0.0000E+00  0.9600E+02  0.0000E+00
    -49.255  0.0000E+00  0.0000E+00  0.9600E+02  0.0000E+00
    -49.017  0.0000E+00  0.0000E+00  0.9600E+02  0.0000E+00
    -48.778  0.0000E+00  0.0000E+00  0.9600E+02  0.0000E+00
    -48.539  0.0000E+00  0.0000E+00  0.9600E+02  0.0000E+00
    -48.300  0.0000E+00  0.0000E+00  0.9600E+02  0.0000E+00
    -48.062  0.0000E+00  0.0000E+00  0.9600E+02  0.0000E+00
    -47.823  0.0000E+00  0.0000E+00  0.9600E+02  0.0000E+00
    -47.584  0.0000E+00  0.0000E+00  0.9600E+02  0.0000E+00
    -47.346  0.0000E+00  0.0000E+00  0.9600E+02  0.0000E+00
    -47.107  0.0000E+00  0.0000E+00  0.9600E+02  0.0000E+00
    -46.868  0.0000E+00  0.2377E-01  0.9600E+02  0.5673E-02
    -46.630  0.0000E+00  0.1339E+03  0.9600E+02  0.3198E+02
    -46.391  0.0000E+00  0.5588E+02  0.9600E+02  0.4531E+02
    -46.152  0.0000E+00  0.2124E+03  0.9600E+02  0.9600E+02
    -45.914  0.0000E+00  0.0000E+00  0.9600E+02  0.9600E+02
    -45.675  0.0000E+00  0.0000E+00  0.9600E+02  0.9600E+02
    -45.436  0.0000E+00  0.0000E+00  0.9600E+02  0.9600E+02
    -45.198  0.0000E+00  0.0000E+00  0.9600E+02  0.9600E+02
    -44.959  0.0000E+00  0.0000E+00  0.9600E+02  0.9600E+02
    -44.720  0.0000E+00  0.0000E+00  0.9600E+02  0.9600E+02
    -44.481  0.0000E+00  0.0000E+00  0.9600E+02  0.9600E+02
    -44.243  0.0000E+00  0.0000E+00  0.9600E+02  0.9600E+02
    -44.004  0.0000E+00  0.0000E+00  0.9600E+02  0.9600E+02
    -43.765  0.0000E+00  0.0000E+00  0.9600E+02  0.9600E+02
    -43.527  0.0000E+00  0.0000E+00  0.9600E+02  0.9600E+02
    -43.288  0.0000E+00  0.0000E+00  0.9600E+02  0.9600E+02
    -43.049  0.0000E+00  0.0000E+00  0.9600E+02  0.9600E+02
    -42.811  0.0000E+00  0.0000E+00  0.9600E+02  0.9600E+02
    -42.572  0.0000E+00  0.0000E+00  0.9600E+02  0.9600E+02
    -42.333  0.0000E+00  0.0000E+00  0.9600E+02  0.9600E+02
    -42.095  0.0000E+00  0.0000E+00  0.9600E+02  0.9600E+02
    -41.856  0.0000E+00  0.0000E+00  0.9600E+02  0.9600E+02
    -41.617  0.0000E+00  0.0000E+00  0.9600E+02  0.9600E+02
    -41.379  0.0000E+00  0.0000E+00  0.9600E+02  0.9600E+02
    -41.140  0.0000E+00  0.0000E+00  0.9600E+02  0.9600E+02
    -40.901  0.0000E+00  0.0000E+00  0.9600E+02  0.9600E+02
    -40.662  0.0000E+00  0.0000E+00  0.9600E+02  0.9600E+02
    -40.424  0.7082E+00  0.6291E+00  0.9617E+02  0.9615E+02
    -40.185  0.2441E+03  0.2461E+03  0.1544E+03  0.1549E+03
    -39.946  0.2328E+02  0.2144E+02  0.1600E+03  0.1600E+03
    -39.708  0.0000E+00  0.0000E+00  0.1600E+03  0.1600E+03
    -39.469  0.0000E+00  0.0000E+00  0.1600E+03  0.1600E+03
    -39.230  0.0000E+00  0.0000E+00  0.1600E+03  0.1600E+03
    -38.992  0.0000E+00  0.0000E+00  0.1600E+03  0.1600E+03
    -38.753  0.0000E+00  0.0000E+00  0.1600E+03  0.1600E+03
    -38.514  0.0000E+00  0.0000E+00  0.1600E+03  0.1600E+03
    -38.276  0.0000E+00  0.0000E+00  0.1600E+03  0.1600E+03
    -38.037  0.0000E+00  0.0000E+00  0.1600E+03  0.1600E+03
    -37.798  0.0000E+00  0.0000E+00  0.1600E+03  0.1600E+03
    -37.559  0.0000E+00  0.0000E+00  0.1600E+03  0.1600E+03
    -37.321  0.0000E+00  0.0000E+00  0.1600E+03  0.1600E+03
    -37.082  0.0000E+00  0.0000E+00  0.1600E+03  0.1600E+03
    -36.843  0.0000E+00  0.0000E+00  0.1600E+03  0.1600E+03
    -36.605  0.0000E+00  0.0000E+00  0.1600E+03  0.1600E+03
    -36.366  0.0000E+00  0.0000E+00  0.1600E+03  0.1600E+03
    -36.127  0.0000E+00  0.0000E+00  0.1600E+03  0.1600E+03
    -35.889  0.0000E+00  0.0000E+00  0.1600E+03  0.1600E+03
    -35.650  0.0000E+00  0.0000E+00  0.1600E+03  0.1600E+03
    -35.411  0.0000E+00  0.0000E+00  0.1600E+03  0.1600E+03
    -35.173  0.0000E+00  0.0000E+00  0.1600E+03  0.1600E+03
    -34.934  0.0000E+00  0.0000E+00  0.1600E+03  0.1600E+03
    -34.695  0.0000E+00  0.0000E+00  0.1600E+03  0.1600E+03
    -34.457  0.0000E+00  0.0000E+00  0.1600E+03  0.1600E+03
    -34.218  0.0000E+00  0.0000E+00  0.1600E+03  0.1600E+03
    -33.979  0.0000E+00  0.0000E+00  0.1600E+03  0.1600E+03
    -33.740  0.0000E+00  0.0000E+00  0.1600E+03  0.1600E+03
    -33.502  0.0000E+00  0.0000E+00  0.1600E+03  0.1600E+03
    -33.263  0.0000E+00  0.0000E+00  0.1600E+03  0.1600E+03
    -33.024  0.0000E+00  0.0000E+00  0.1600E+03  0.1600E+03
    -32.786  0.0000E+00  0.0000E+00  0.1600E+03  0.1600E+03
    -32.547  0.0000E+00  0.0000E+00  0.1600E+03  0.1600E+03
    -32.308  0.0000E+00  0.0000E+00  0.1600E+03  0.1600E+03
    -32.070  0.0000E+00  0.0000E+00  0.1600E+03  0.1600E+03
    -31.831  0.0000E+00  0.0000E+00  0.1600E+03  0.1600E+03
    -31.592  0.0000E+00  0.0000E+00  0.1600E+03  0.1600E+03
    -31.354  0.0000E+00  0.0000E+00  0.1600E+03  0.1600E+03
    -31.115  0.0000E+00  0.0000E+00  0.1600E+03  0.1600E+03
    -30.876  0.0000E+00  0.0000E+00  0.1600E+03  0.1600E+03
    -30.638  0.0000E+00  0.0000E+00  0.1600E+03  0.1600E+03
    -30.399  0.0000E+00  0.0000E+00  0.1600E+03  0.1600E+03
    -30.160  0.0000E+00  0.0000E+00  0.1600E+03  0.1600E+03
    -29.921  0.0000E+00  0.0000E+00  0.1600E+03  0.1600E+03
    -29.683  0.0000E+00  0.0000E+00  0.1600E+03  0.1600E+03
    -29.444  0.0000E+00  0.0000E+00  0.1600E+03  0.1600E+03
    -29.205  0.0000E+00  0.0000E+00  0.1600E+03  0.1600E+03
    -28.967  0.0000E+00  0.0000E+00  0.1600E+03  0.1600E+03
    -28.728  0.0000E+00  0.0000E+00  0.1600E+03  0.1600E+03
    -28.489  0.0000E+00  0.0000E+00  0.1600E+03  0.1600E+03
    -28.251  0.0000E+00  0.0000E+00  0.1600E+03  0.1600E+03
    -28.012  0.0000E+00  0.0000E+00  0.1600E+03  0.1600E+03
    -27.773  0.0000E+00  0.0000E+00  0.1600E+03  0.1600E+03
    -27.535  0.0000E+00  0.0000E+00  0.1600E+03  0.1600E+03
    -27.296  0.0000E+00  0.0000E+00  0.1600E+03  0.1600E+03
    -27.057  0.0000E+00  0.0000E+00  0.1600E+03  0.1600E+03
    -26.819  0.0000E+00  0.0000E+00  0.1600E+03  0.1600E+03
    -26.580  0.0000E+00  0.0000E+00  0.1600E+03  0.1600E+03
    -26.341  0.0000E+00  0.0000E+00  0.1600E+03  0.1600E+03
    -26.102  0.0000E+00  0.0000E+00  0.1600E+03  0.1600E+03
    -25.864  0.0000E+00  0.0000E+00  0.1600E+03  0.1600E+03
    -25.625  0.0000E+00  0.0000E+00  0.1600E+03  0.1600E+03
    -25.386  0.0000E+00  0.0000E+00  0.1600E+03  0.1600E+03
    -25.148  0.0000E+00  0.0000E+00  0.1600E+03  0.1600E+03
    -24.909  0.0000E+00  0.0000E+00  0.1600E+03  0.1600E+03
    -24.670  0.0000E+00  0.0000E+00  0.1600E+03  0.1600E+03
    -24.432  0.0000E+00  0.0000E+00  0.1600E+03  0.1600E+03
    -24.193  0.0000E+00  0.0000E+00  0.1600E+03  0.1600E+03
    -23.954  0.0000E+00  0.0000E+00  0.1600E+03  0.1600E+03
    -23.716  0.0000E+00  0.0000E+00  0.1600E+03  0.1600E+03
    -23.477  0.0000E+00  0.0000E+00  0.1600E+03  0.1600E+03
    -23.238  0.0000E+00  0.0000E+00  0.1600E+03  0.1600E+03
    -22.999  0.0000E+00  0.0000E+00  0.1600E+03  0.1600E+03
    -22.761  0.0000E+00  0.0000E+00  0.1600E+03  0.1600E+03
    -22.522  0.0000E+00  0.0000E+00  0.1600E+03  0.1600E+03
    -22.283  0.0000E+00  0.0000E+00  0.1600E+03  0.1600E+03
    -22.045  0.0000E+00  0.0000E+00  0.1600E+03  0.1600E+03
    -21.806  0.0000E+00  0.0000E+00  0.1600E+03  0.1600E+03
    -21.567  0.0000E+00  0.0000E+00  0.1600E+03  0.1600E+03
    -21.329  0.0000E+00  0.0000E+00  0.1600E+03  0.1600E+03
    -21.090  0.0000E+00  0.0000E+00  0.1600E+03  0.1600E+03
    -20.851  0.0000E+00  0.0000E+00  0.1600E+03  0.1600E+03
    -20.613  0.0000E+00  0.0000E+00  0.1600E+03  0.1600E+03
    -20.374  0.0000E+00  0.0000E+00  0.1600E+03  0.1600E+03
    -20.135  0.0000E+00  0.0000E+00  0.1600E+03  0.1600E+03
    -19.897  0.0000E+00  0.0000E+00  0.1600E+03  0.1600E+03
    -19.658  0.0000E+00  0.0000E+00  0.1600E+03  0.1600E+03
    -19.419  0.0000E+00  0.0000E+00  0.1600E+03  0.1600E+03
    -19.180  0.0000E+00  0.0000E+00  0.1600E+03  0.1600E+03
    -18.942  0.0000E+00  0.0000E+00  0.1600E+03  0.1600E+03
    -18.703  0.0000E+00  0.0000E+00  0.1600E+03  0.1600E+03
    -18.464  0.0000E+00  0.0000E+00  0.1600E+03  0.1600E+03
    -18.226  0.0000E+00  0.0000E+00  0.1600E+03  0.1600E+03
    -17.987  0.0000E+00  0.0000E+00  0.1600E+03  0.1600E+03
    -17.748  0.0000E+00  0.0000E+00  0.1600E+03  0.1600E+03
    -17.510  0.0000E+00  0.0000E+00  0.1600E+03  0.1600E+03
    -17.271  0.0000E+00  0.0000E+00  0.1600E+03  0.1600E+03
    -17.032  0.0000E+00  0.0000E+00  0.1600E+03  0.1600E+03
    -16.794  0.0000E+00  0.0000E+00  0.1600E+03  0.1600E+03
    -16.555  0.0000E+00  0.0000E+00  0.1600E+03  0.1600E+03
    -16.316  0.0000E+00  0.0000E+00  0.1600E+03  0.1600E+03
    -16.078  0.0000E+00  0.0000E+00  0.1600E+03  0.1600E+03
    -15.839  0.0000E+00  0.0000E+00  0.1600E+03  0.1600E+03
    -15.600  0.0000E+00  0.0000E+00  0.1600E+03  0.1600E+03
    -15.361  0.0000E+00  0.0000E+00  0.1600E+03  0.1600E+03
    -15.123  0.0000E+00  0.0000E+00  0.1600E+03  0.1600E+03
    -14.884  0.0000E+00  0.0000E+00  0.1600E+03  0.1600E+03
    -14.645  0.0000E+00  0.0000E+00  0.1600E+03  0.1600E+03
    -14.407  0.0000E+00  0.0000E+00  0.1600E+03  0.1600E+03
    -14.168  0.0000E+00  0.0000E+00  0.1600E+03  0.1600E+03
    -13.929  0.0000E+00  0.0000E+00  0.1600E+03  0.1600E+03
    -13.691  0.2640E-05  0.0000E+00  0.1600E+03  0.1600E+03
    -13.452  0.3463E+02  0.1248E-11  0.1683E+03  0.1600E+03
    -13.213  0.7586E+02  0.5617E+01  0.1864E+03  0.1613E+03
    -12.975  0.2358E+02  0.1087E+03  0.1920E+03  0.1873E+03
    -12.736  0.0000E+00  0.1975E+02  0.1920E+03  0.1920E+03
    -12.497  0.0000E+00  0.0000E+00  0.1920E+03  0.1920E+03
    -12.259  0.0000E+00  0.0000E+00  0.1920E+03  0.1920E+03
    -12.020  0.0000E+00  0.0000E+00  0.1920E+03  0.1920E+03
    -11.781  0.0000E+00  0.0000E+00  0.1920E+03  0.1920E+03
    -11.542  0.0000E+00  0.0000E+00  0.1920E+03  0.1920E+03
    -11.304  0.0000E+00  0.0000E+00  0.1920E+03  0.1920E+03
    -11.065  0.0000E+00  0.0000E+00  0.1920E+03  0.1920E+03
    -10.826  0.0000E+00  0.0000E+00  0.1920E+03  0.1920E+03
    -10.588  0.0000E+00  0.0000E+00  0.1920E+03  0.1920E+03
    -10.349  0.0000E+00  0.0000E+00  0.1920E+03  0.1920E+03
    -10.110  0.0000E+00  0.0000E+00  0.1920E+03  0.1920E+03
     -9.872  0.0000E+00  0.0000E+00  0.1920E+03  0.1920E+03
     -9.633  0.0000E+00  0.0000E+00  0.1920E+03  0.1920E+03
     -9.394  0.0000E+00  0.0000E+00  0.1920E+03  0.1920E+03
     -9.156  0.0000E+00  0.0000E+00  0.1920E+03  0.1920E+03
     -8.917  0.0000E+00  0.0000E+00  0.1920E+03  0.1920E+03
     -8.678  0.0000E+00  0.0000E+00  0.1920E+03  0.1920E+03
     -8.439  0.0000E+00  0.0000E+00  0.1920E+03  0.1920E+03
     -8.201  0.0000E+00  0.0000E+00  0.1920E+03  0.1920E+03
     -7.962  0.0000E+00  0.0000E+00  0.1920E+03  0.1920E+03
     -7.723  0.5053E-02  0.1550E-15  0.1920E+03  0.1920E+03
     -7.485  0.2299E+02  0.1272E+00  0.1975E+03  0.1920E+03
     -7.246  0.6248E+02  0.4172E+02  0.2124E+03  0.2020E+03
     -7.007  0.4688E+02  0.6361E+02  0.2236E+03  0.2172E+03
     -6.769  0.1718E+01  0.2775E+02  0.2240E+03  0.2238E+03
     -6.530  0.0000E+00  0.8547E+00  0.2240E+03  0.2240E+03
     -6.291  0.0000E+00  0.0000E+00  0.2240E+03  0.2240E+03
     -6.053  0.0000E+00  0.0000E+00  0.2240E+03  0.2240E+03
     -5.814  0.0000E+00  0.0000E+00  0.2240E+03  0.2240E+03
     -5.575  0.0000E+00  0.0000E+00  0.2240E+03  0.2240E+03
     -5.337  0.0000E+00  0.0000E+00  0.2240E+03  0.2240E+03
     -5.098  0.0000E+00  0.0000E+00  0.2240E+03  0.2240E+03
     -4.859  0.0000E+00  0.0000E+00  0.2240E+03  0.2240E+03
     -4.620  0.0000E+00  0.0000E+00  0.2240E+03  0.2240E+03
     -4.382  0.0000E+00  0.0000E+00  0.2240E+03  0.2240E+03
     -4.143  0.0000E+00  0.0000E+00  0.2240E+03  0.2240E+03
     -3.904  0.0000E+00  0.0000E+00  0.2240E+03  0.2240E+03
     -3.666  0.0000E+00  0.0000E+00  0.2240E+03  0.2240E+03
     -3.427  0.0000E+00  0.0000E+00  0.2240E+03  0.2240E+03
     -3.188  0.0000E+00  0.0000E+00  0.2240E+03  0.2240E+03
     -2.950  0.0000E+00  0.0000E+00  0.2240E+03  0.2240E+03
     -2.711  0.3658E-04  0.0000E+00  0.2240E+03  0.2240E+03
     -2.472  0.1551E+02  0.0000E+00  0.2277E+03  0.2240E+03
     -2.234  0.1806E+02  0.0000E+00  0.2320E+03  0.2240E+03
     -1.995  0.2229E+02  0.0000E+00  0.2373E+03  0.2240E+03
     -1.756  0.1491E+00  0.0000E+00  0.2374E+03  0.2240E+03
     -1.518  0.2220E+02  0.0000E+00  0.2427E+03  0.2240E+03
     -1.279  0.3007E+02  0.1757E-14  0.2498E+03  0.2240E+03
     -1.040  0.7773E+02  0.9507E-01  0.2684E+03  0.2240E+03
     -0.801  0.7190E+02  0.2161E+02  0.2856E+03  0.2292E+03
     -0.563  0.7045E+02  0.2771E+02  0.3024E+03  0.2358E+03
     -0.324  0.9505E+02  0.1577E+02  0.3251E+03  0.2396E+03
     -0.085  0.1031E+03  0.1422E+02  0.3497E+03  0.2430E+03
      0.153  0.5450E+02  0.2657E+02  0.3627E+03  0.2493E+03
      0.392  0.4753E+02  0.5214E+02  0.3740E+03  0.2617E+03
      0.631  0.5241E+02  0.7826E+02  0.3865E+03  0.2804E+03
      0.869  0.4331E+02  0.7172E+02  0.3969E+03  0.2975E+03
      1.108  0.6312E+02  0.7671E+02  0.4119E+03  0.3159E+03
      1.347  0.8353E+02  0.2888E+02  0.4319E+03  0.3227E+03
      1.585  0.8021E+02  0.3789E+02  0.4510E+03  0.3318E+03
      1.824  0.4168E+02  0.4978E+02  0.4610E+03  0.3437E+03
      2.063  0.3984E+02  0.4318E+02  0.4705E+03  0.3540E+03
      2.301  0.4859E+02  0.2857E+02  0.4821E+03  0.3608E+03
      2.540  0.4332E+02  0.5096E+02  0.4924E+03  0.3730E+03
      2.779  0.5580E+02  0.6833E+02  0.5057E+03  0.3893E+03
      3.018  0.5565E+02  0.8199E+02  0.5190E+03  0.4088E+03
      3.256  0.5438E+02  0.2850E+02  0.5320E+03  0.4156E+03
      3.495  0.4587E+02  0.2232E+02  0.5429E+03  0.4210E+03
      3.734  0.5628E+02  0.4785E+02  0.5564E+03  0.4324E+03
      3.972  0.3736E+02  0.5526E+02  0.5653E+03  0.4456E+03
      4.211  0.2679E+02  0.1015E+02  0.5717E+03  0.4480E+03
      4.450  0.1605E+02  0.3829E-03  0.5755E+03  0.4480E+03
      4.688  0.2003E+01  0.0000E+00  0.5760E+03  0.4480E+03
      4.927  0.8878E-04  0.0000E+00  0.5760E+03  0.4480E+03
      5.166  0.0000E+00  0.0000E+00  0.5760E+03  0.4480E+03
      5.404  0.0000E+00  0.0000E+00  0.5760E+03  0.4480E+03
      5.643  0.0000E+00  0.0000E+00  0.5760E+03  0.4480E+03
      5.882  0.0000E+00  0.0000E+00  0.5760E+03  0.4480E+03
      6.121  0.0000E+00  0.0000E+00  0.5760E+03  0.4480E+03
      6.359  0.0000E+00  0.1180E-10  0.5760E+03  0.4480E+03
      6.598  0.0000E+00  0.1559E+01  0.5760E+03  0.4484E+03
      6.837  0.1059E-14  0.5443E+02  0.5760E+03  0.4614E+03
      7.075  0.3693E-01  0.7688E+02  0.5760E+03  0.4797E+03
      7.314  0.1958E+00  0.5764E+02  0.5761E+03  0.4935E+03
      7.553  0.9745E+00  0.6904E+02  0.5763E+03  0.5100E+03
      7.791  0.1488E+01  0.6411E+02  0.5766E+03  0.5253E+03
      8.030  0.3149E+01  0.9735E+02  0.5774E+03  0.5485E+03
      8.269  0.8544E+01  0.6970E+02  0.5794E+03  0.5651E+03
      8.507  0.1104E+02  0.3507E+02  0.5821E+03  0.5735E+03
      8.746  0.2242E+02  0.1262E+02  0.5874E+03  0.5765E+03
      8.985  0.2763E+02  0.8436E+01  0.5940E+03  0.5785E+03
      9.223  0.2841E+02  0.1158E+02  0.6008E+03  0.5813E+03
      9.462  0.3241E+02  0.2089E+02  0.6085E+03  0.5863E+03
      9.701  0.2923E+02  0.2561E+02  0.6155E+03  0.5924E+03
      9.940  0.2071E+02  0.4178E+02  0.6205E+03  0.6024E+03
     10.178  0.2180E+02  0.3264E+02  0.6257E+03  0.6102E+03
     10.417  0.2592E+02  0.3396E+02  0.6318E+03  0.6183E+03
     10.656  0.4070E+02  0.3253E+02  0.6416E+03  0.6260E+03
     10.894  0.3959E+02  0.2373E+02  0.6510E+03  0.6317E+03
     11.133  0.4482E+02  0.3398E+02  0.6617E+03  0.6398E+03
     11.372  0.4018E+02  0.2281E+02  0.6713E+03  0.6452E+03
     11.610  0.3879E+02  0.3637E+02  0.6806E+03  0.6539E+03
     11.849  0.4735E+02  0.5242E+02  0.6919E+03  0.6664E+03
     12.088  0.3013E+02  0.5837E+02  0.6990E+03  0.6804E+03
     12.326  0.2900E+02  0.4518E+02  0.7060E+03  0.6911E+03
     12.565  0.3352E+02  0.3101E+02  0.7140E+03  0.6985E+03
     12.804  0.4130E+02  0.3267E+02  0.7238E+03  0.7063E+03
     13.042  0.1928E+02  0.3539E+02  0.7284E+03  0.7148E+03
     13.281  0.1474E+02  0.3617E+02  0.7319E+03  0.7234E+03
     13.520  0.2262E+00  0.2878E+02  0.7320E+03  0.7303E+03
     13.759  0.0000E+00  0.7132E+01  0.7320E+03  0.7320E+03
     13.997  0.0000E+00  0.4045E-05  0.7320E+03  0.7320E+03
     14.236  0.0000E+00  0.0000E+00  0.7320E+03  0.7320E+03
     14.475  0.0000E+00  0.0000E+00  0.7320E+03  0.7320E+03
     14.713  0.0000E+00  0.0000E+00  0.7320E+03  0.7320E+03
     14.952  0.0000E+00  0.0000E+00  0.7320E+03  0.7320E+03
     15.191  0.0000E+00  0.0000E+00  0.7320E+03  0.7320E+03
     15.429  0.0000E+00  0.0000E+00  0.7320E+03  0.7320E+03
     15.668  0.0000E+00  0.0000E+00  0.7320E+03  0.7320E+03
     15.907  0.0000E+00  0.0000E+00  0.7320E+03  0.7320E+03
     16.145  0.0000E+00  0.0000E+00  0.7320E+03  0.7320E+03
     16.384  0.0000E+00  0.0000E+00  0.7320E+03  0.7320E+03
     16.623  0.0000E+00  0.0000E+00  0.7320E+03  0.7320E+03
     16.861  0.0000E+00  0.0000E+00  0.7320E+03  0.7320E+03
