 160 160   0   0
  0.1218736E+02  0.1542482E-08  0.1121024E-08  0.1127703E-08  0.5000000E-15
  1.000000000000000E-004
  CAR 
 unknown system                          
     16.85676867    -54.74185358  301      4.95349772      1.00000000
    -54.742  0.0000E+00  0.0000E+00  0.0000E+00  0.0000E+00
    -54.503  0.0000E+00  0.0000E+00  0.0000E+00  0.0000E+00
    -54.265  0.0000E+00  0.0000E+00  0.0000E+00  0.0000E+00
    -54.026  0.0000E+00  0.0000E+00  0.0000E+00  0.0000E+00
    -53.787  0.0000E+00  0.0000E+00  0.0000E+00  0.0000E+00
    -53.549  0.0000E+00  0.0000E+00  0.0000E+00  0.0000E+00
    -53.310  0.0000E+00  0.0000E+00  0.0000E+00  0.0000E+00
    -53.071  0.0000E+00  0.0000E+00  0.0000E+00  0.0000E+00
    -52.833  0.0000E+00  0.0000E+00  0.0000E+00  0.0000E+00
    -52.594  0.0000E+00  0.0000E+00  0.0000E+00  0.0000E+00
    -52.355  0.0000E+00  0.0000E+00  0.0000E+00  0.0000E+00
    -52.117  0.0000E+00  0.0000E+00  0.0000E+00  0.0000E+00
    -51.878  0.0000E+00  0.0000E+00  0.0000E+00  0.0000E+00
    -51.639  0.9840E-03  0.0000E+00  0.2348E-03  0.0000E+00
    -51.401  0.1330E+03  0.0000E+00  0.3175E+02  0.0000E+00
    -51.162  0.1053E+01  0.0000E+00  0.3200E+02  0.0000E+00
    -50.923  0.0000E+00  0.0000E+00  0.3200E+02  0.0000E+00
    -50.685  0.0000E+00  0.0000E+00  0.3200E+02  0.0000E+00
    -50.446  0.0000E+00  0.0000E+00  0.3200E+02  0.0000E+00
    -50.207  0.9885E-01  0.0000E+00  0.3202E+02  0.0000E+00
    -49.969  0.2663E+03  0.0000E+00  0.9557E+02  0.0000E+00
    -49.730  0.1806E+01  0.0000E+00  0.9600E+02  0.0000E+00
    -49.491  0.0000E+00  0.0000E+00  0.9600E+02  0.0000E+00
    -49.253  0.0000E+00  0.0000E+00  0.9600E+02  0.0000E+00
    -49.014  0.0000E+00  0.0000E+00  0.9600E+02  0.0000E+00
    -48.775  0.0000E+00  0.0000E+00  0.9600E+02  0.0000E+00
    -48.537  0.0000E+00  0.0000E+00  0.9600E+02  0.0000E+00
    -48.298  0.0000E+00  0.0000E+00  0.9600E+02  0.0000E+00
    -48.059  0.0000E+00  0.0000E+00  0.9600E+02  0.0000E+00
    -47.821  0.0000E+00  0.0000E+00  0.9600E+02  0.0000E+00
    -47.582  0.0000E+00  0.0000E+00  0.9600E+02  0.0000E+00
    -47.343  0.0000E+00  0.0000E+00  0.9600E+02  0.0000E+00
    -47.105  0.0000E+00  0.0000E+00  0.9600E+02  0.0000E+00
    -46.866  0.0000E+00  0.3030E-01  0.9600E+02  0.7231E-02
    -46.627  0.0000E+00  0.1340E+03  0.9600E+02  0.3198E+02
    -46.389  0.0000E+00  0.6086E+02  0.9600E+02  0.4651E+02
    -46.150  0.0000E+00  0.2074E+03  0.9600E+02  0.9600E+02
    -45.911  0.0000E+00  0.0000E+00  0.9600E+02  0.9600E+02
    -45.673  0.0000E+00  0.0000E+00  0.9600E+02  0.9600E+02
    -45.434  0.0000E+00  0.0000E+00  0.9600E+02  0.9600E+02
    -45.195  0.0000E+00  0.0000E+00  0.9600E+02  0.9600E+02
    -44.957  0.0000E+00  0.0000E+00  0.9600E+02  0.9600E+02
    -44.718  0.0000E+00  0.0000E+00  0.9600E+02  0.9600E+02
    -44.479  0.0000E+00  0.0000E+00  0.9600E+02  0.9600E+02
    -44.241  0.0000E+00  0.0000E+00  0.9600E+02  0.9600E+02
    -44.002  0.0000E+00  0.0000E+00  0.9600E+02  0.9600E+02
    -43.763  0.0000E+00  0.0000E+00  0.9600E+02  0.9600E+02
    -43.525  0.0000E+00  0.0000E+00  0.9600E+02  0.9600E+02
    -43.286  0.0000E+00  0.0000E+00  0.9600E+02  0.9600E+02
    -43.047  0.0000E+00  0.0000E+00  0.9600E+02  0.9600E+02
    -42.809  0.0000E+00  0.0000E+00  0.9600E+02  0.9600E+02
    -42.570  0.0000E+00  0.0000E+00  0.9600E+02  0.9600E+02
    -42.331  0.0000E+00  0.0000E+00  0.9600E+02  0.9600E+02
    -42.093  0.0000E+00  0.0000E+00  0.9600E+02  0.9600E+02
    -41.854  0.0000E+00  0.0000E+00  0.9600E+02  0.9600E+02
    -41.615  0.0000E+00  0.0000E+00  0.9600E+02  0.9600E+02
    -41.377  0.0000E+00  0.0000E+00  0.9600E+02  0.9600E+02
    -41.138  0.0000E+00  0.0000E+00  0.9600E+02  0.9600E+02
    -40.899  0.0000E+00  0.0000E+00  0.9600E+02  0.9600E+02
    -40.661  0.0000E+00  0.0000E+00  0.9600E+02  0.9600E+02
    -40.422  0.8030E+00  0.7163E+00  0.9619E+02  0.9617E+02
    -40.183  0.2457E+03  0.2475E+03  0.1548E+03  0.1552E+03
    -39.945  0.2162E+02  0.1991E+02  0.1600E+03  0.1600E+03
    -39.706  0.0000E+00  0.0000E+00  0.1600E+03  0.1600E+03
    -39.467  0.0000E+00  0.0000E+00  0.1600E+03  0.1600E+03
    -39.229  0.0000E+00  0.0000E+00  0.1600E+03  0.1600E+03
    -38.990  0.0000E+00  0.0000E+00  0.1600E+03  0.1600E+03
    -38.751  0.0000E+00  0.0000E+00  0.1600E+03  0.1600E+03
    -38.513  0.0000E+00  0.0000E+00  0.1600E+03  0.1600E+03
    -38.274  0.0000E+00  0.0000E+00  0.1600E+03  0.1600E+03
    -38.036  0.0000E+00  0.0000E+00  0.1600E+03  0.1600E+03
    -37.797  0.0000E+00  0.0000E+00  0.1600E+03  0.1600E+03
    -37.558  0.0000E+00  0.0000E+00  0.1600E+03  0.1600E+03
    -37.320  0.0000E+00  0.0000E+00  0.1600E+03  0.1600E+03
    -37.081  0.0000E+00  0.0000E+00  0.1600E+03  0.1600E+03
    -36.842  0.0000E+00  0.0000E+00  0.1600E+03  0.1600E+03
    -36.604  0.0000E+00  0.0000E+00  0.1600E+03  0.1600E+03
    -36.365  0.0000E+00  0.0000E+00  0.1600E+03  0.1600E+03
    -36.126  0.0000E+00  0.0000E+00  0.1600E+03  0.1600E+03
    -35.888  0.0000E+00  0.0000E+00  0.1600E+03  0.1600E+03
    -35.649  0.0000E+00  0.0000E+00  0.1600E+03  0.1600E+03
    -35.410  0.0000E+00  0.0000E+00  0.1600E+03  0.1600E+03
    -35.172  0.0000E+00  0.0000E+00  0.1600E+03  0.1600E+03
    -34.933  0.0000E+00  0.0000E+00  0.1600E+03  0.1600E+03
    -34.694  0.0000E+00  0.0000E+00  0.1600E+03  0.1600E+03
    -34.456  0.0000E+00  0.0000E+00  0.1600E+03  0.1600E+03
    -34.217  0.0000E+00  0.0000E+00  0.1600E+03  0.1600E+03
    -33.978  0.0000E+00  0.0000E+00  0.1600E+03  0.1600E+03
    -33.740  0.0000E+00  0.0000E+00  0.1600E+03  0.1600E+03
    -33.501  0.0000E+00  0.0000E+00  0.1600E+03  0.1600E+03
    -33.262  0.0000E+00  0.0000E+00  0.1600E+03  0.1600E+03
    -33.024  0.0000E+00  0.0000E+00  0.1600E+03  0.1600E+03
    -32.785  0.0000E+00  0.0000E+00  0.1600E+03  0.1600E+03
    -32.546  0.0000E+00  0.0000E+00  0.1600E+03  0.1600E+03
    -32.308  0.0000E+00  0.0000E+00  0.1600E+03  0.1600E+03
    -32.069  0.0000E+00  0.0000E+00  0.1600E+03  0.1600E+03
    -31.830  0.0000E+00  0.0000E+00  0.1600E+03  0.1600E+03
    -31.592  0.0000E+00  0.0000E+00  0.1600E+03  0.1600E+03
    -31.353  0.0000E+00  0.0000E+00  0.1600E+03  0.1600E+03
    -31.114  0.0000E+00  0.0000E+00  0.1600E+03  0.1600E+03
    -30.876  0.0000E+00  0.0000E+00  0.1600E+03  0.1600E+03
    -30.637  0.0000E+00  0.0000E+00  0.1600E+03  0.1600E+03
    -30.398  0.0000E+00  0.0000E+00  0.1600E+03  0.1600E+03
    -30.160  0.0000E+00  0.0000E+00  0.1600E+03  0.1600E+03
    -29.921  0.0000E+00  0.0000E+00  0.1600E+03  0.1600E+03
    -29.682  0.0000E+00  0.0000E+00  0.1600E+03  0.1600E+03
    -29.444  0.0000E+00  0.0000E+00  0.1600E+03  0.1600E+03
    -29.205  0.0000E+00  0.0000E+00  0.1600E+03  0.1600E+03
    -28.966  0.0000E+00  0.0000E+00  0.1600E+03  0.1600E+03
    -28.728  0.0000E+00  0.0000E+00  0.1600E+03  0.1600E+03
    -28.489  0.0000E+00  0.0000E+00  0.1600E+03  0.1600E+03
    -28.250  0.0000E+00  0.0000E+00  0.1600E+03  0.1600E+03
    -28.012  0.0000E+00  0.0000E+00  0.1600E+03  0.1600E+03
    -27.773  0.0000E+00  0.0000E+00  0.1600E+03  0.1600E+03
    -27.534  0.0000E+00  0.0000E+00  0.1600E+03  0.1600E+03
    -27.296  0.0000E+00  0.0000E+00  0.1600E+03  0.1600E+03
    -27.057  0.0000E+00  0.0000E+00  0.1600E+03  0.1600E+03
    -26.818  0.0000E+00  0.0000E+00  0.1600E+03  0.1600E+03
    -26.580  0.0000E+00  0.0000E+00  0.1600E+03  0.1600E+03
    -26.341  0.0000E+00  0.0000E+00  0.1600E+03  0.1600E+03
    -26.102  0.0000E+00  0.0000E+00  0.1600E+03  0.1600E+03
    -25.864  0.0000E+00  0.0000E+00  0.1600E+03  0.1600E+03
    -25.625  0.0000E+00  0.0000E+00  0.1600E+03  0.1600E+03
    -25.386  0.0000E+00  0.0000E+00  0.1600E+03  0.1600E+03
    -25.148  0.0000E+00  0.0000E+00  0.1600E+03  0.1600E+03
    -24.909  0.0000E+00  0.0000E+00  0.1600E+03  0.1600E+03
    -24.670  0.0000E+00  0.0000E+00  0.1600E+03  0.1600E+03
    -24.432  0.0000E+00  0.0000E+00  0.1600E+03  0.1600E+03
    -24.193  0.0000E+00  0.0000E+00  0.1600E+03  0.1600E+03
    -23.954  0.0000E+00  0.0000E+00  0.1600E+03  0.1600E+03
    -23.716  0.0000E+00  0.0000E+00  0.1600E+03  0.1600E+03
    -23.477  0.0000E+00  0.0000E+00  0.1600E+03  0.1600E+03
    -23.238  0.0000E+00  0.0000E+00  0.1600E+03  0.1600E+03
    -23.000  0.0000E+00  0.0000E+00  0.1600E+03  0.1600E+03
    -22.761  0.0000E+00  0.0000E+00  0.1600E+03  0.1600E+03
    -22.522  0.0000E+00  0.0000E+00  0.1600E+03  0.1600E+03
    -22.284  0.0000E+00  0.0000E+00  0.1600E+03  0.1600E+03
    -22.045  0.0000E+00  0.0000E+00  0.1600E+03  0.1600E+03
    -21.806  0.0000E+00  0.0000E+00  0.1600E+03  0.1600E+03
    -21.568  0.0000E+00  0.0000E+00  0.1600E+03  0.1600E+03
    -21.329  0.0000E+00  0.0000E+00  0.1600E+03  0.1600E+03
    -21.091  0.0000E+00  0.0000E+00  0.1600E+03  0.1600E+03
    -20.852  0.0000E+00  0.0000E+00  0.1600E+03  0.1600E+03
    -20.613  0.0000E+00  0.0000E+00  0.1600E+03  0.1600E+03
    -20.375  0.0000E+00  0.0000E+00  0.1600E+03  0.1600E+03
    -20.136  0.0000E+00  0.0000E+00  0.1600E+03  0.1600E+03
    -19.897  0.0000E+00  0.0000E+00  0.1600E+03  0.1600E+03
    -19.659  0.0000E+00  0.0000E+00  0.1600E+03  0.1600E+03
    -19.420  0.0000E+00  0.0000E+00  0.1600E+03  0.1600E+03
    -19.181  0.0000E+00  0.0000E+00  0.1600E+03  0.1600E+03
    -18.943  0.0000E+00  0.0000E+00  0.1600E+03  0.1600E+03
    -18.704  0.0000E+00  0.0000E+00  0.1600E+03  0.1600E+03
    -18.465  0.0000E+00  0.0000E+00  0.1600E+03  0.1600E+03
    -18.227  0.0000E+00  0.0000E+00  0.1600E+03  0.1600E+03
    -17.988  0.0000E+00  0.0000E+00  0.1600E+03  0.1600E+03
    -17.749  0.0000E+00  0.0000E+00  0.1600E+03  0.1600E+03
    -17.511  0.0000E+00  0.0000E+00  0.1600E+03  0.1600E+03
    -17.272  0.0000E+00  0.0000E+00  0.1600E+03  0.1600E+03
    -17.033  0.0000E+00  0.0000E+00  0.1600E+03  0.1600E+03
    -16.795  0.0000E+00  0.0000E+00  0.1600E+03  0.1600E+03
    -16.556  0.0000E+00  0.0000E+00  0.1600E+03  0.1600E+03
    -16.317  0.0000E+00  0.0000E+00  0.1600E+03  0.1600E+03
    -16.079  0.0000E+00  0.0000E+00  0.1600E+03  0.1600E+03
    -15.840  0.0000E+00  0.0000E+00  0.1600E+03  0.1600E+03
    -15.601  0.0000E+00  0.0000E+00  0.1600E+03  0.1600E+03
    -15.363  0.0000E+00  0.0000E+00  0.1600E+03  0.1600E+03
    -15.124  0.0000E+00  0.0000E+00  0.1600E+03  0.1600E+03
    -14.885  0.0000E+00  0.0000E+00  0.1600E+03  0.1600E+03
    -14.647  0.0000E+00  0.0000E+00  0.1600E+03  0.1600E+03
    -14.408  0.0000E+00  0.0000E+00  0.1600E+03  0.1600E+03
    -14.169  0.0000E+00  0.0000E+00  0.1600E+03  0.1600E+03
    -13.931  0.0000E+00  0.0000E+00  0.1600E+03  0.1600E+03
    -13.692  0.2158E-05  0.0000E+00  0.1600E+03  0.1600E+03
    -13.453  0.3408E+02  0.9278E-12  0.1681E+03  0.1600E+03
    -13.215  0.7588E+02  0.5285E+01  0.1862E+03  0.1613E+03
    -12.976  0.2412E+02  0.1084E+03  0.1920E+03  0.1871E+03
    -12.737  0.0000E+00  0.2040E+02  0.1920E+03  0.1920E+03
    -12.499  0.0000E+00  0.0000E+00  0.1920E+03  0.1920E+03
    -12.260  0.0000E+00  0.0000E+00  0.1920E+03  0.1920E+03
    -12.021  0.0000E+00  0.0000E+00  0.1920E+03  0.1920E+03
    -11.783  0.0000E+00  0.0000E+00  0.1920E+03  0.1920E+03
    -11.544  0.0000E+00  0.0000E+00  0.1920E+03  0.1920E+03
    -11.305  0.0000E+00  0.0000E+00  0.1920E+03  0.1920E+03
    -11.067  0.0000E+00  0.0000E+00  0.1920E+03  0.1920E+03
    -10.828  0.0000E+00  0.0000E+00  0.1920E+03  0.1920E+03
    -10.589  0.0000E+00  0.0000E+00  0.1920E+03  0.1920E+03
    -10.351  0.0000E+00  0.0000E+00  0.1920E+03  0.1920E+03
    -10.112  0.0000E+00  0.0000E+00  0.1920E+03  0.1920E+03
     -9.873  0.0000E+00  0.0000E+00  0.1920E+03  0.1920E+03
     -9.635  0.0000E+00  0.0000E+00  0.1920E+03  0.1920E+03
     -9.396  0.0000E+00  0.0000E+00  0.1920E+03  0.1920E+03
     -9.157  0.0000E+00  0.0000E+00  0.1920E+03  0.1920E+03
     -8.919  0.0000E+00  0.0000E+00  0.1920E+03  0.1920E+03
     -8.680  0.0000E+00  0.0000E+00  0.1920E+03  0.1920E+03
     -8.441  0.0000E+00  0.0000E+00  0.1920E+03  0.1920E+03
     -8.203  0.0000E+00  0.0000E+00  0.1920E+03  0.1920E+03
     -7.964  0.0000E+00  0.0000E+00  0.1920E+03  0.1920E+03
     -7.725  0.4260E-02  0.7753E-16  0.1920E+03  0.1920E+03
     -7.487  0.2248E+02  0.1119E+00  0.1974E+03  0.1920E+03
     -7.248  0.6239E+02  0.4118E+02  0.2123E+03  0.2019E+03
     -7.009  0.4738E+02  0.6367E+02  0.2236E+03  0.2171E+03
     -6.771  0.1829E+01  0.2820E+02  0.2240E+03  0.2238E+03
     -6.532  0.0000E+00  0.9159E+00  0.2240E+03  0.2240E+03
     -6.293  0.0000E+00  0.0000E+00  0.2240E+03  0.2240E+03
     -6.055  0.0000E+00  0.0000E+00  0.2240E+03  0.2240E+03
     -5.816  0.0000E+00  0.0000E+00  0.2240E+03  0.2240E+03
     -5.577  0.0000E+00  0.0000E+00  0.2240E+03  0.2240E+03
     -5.339  0.0000E+00  0.0000E+00  0.2240E+03  0.2240E+03
     -5.100  0.0000E+00  0.0000E+00  0.2240E+03  0.2240E+03
     -4.861  0.0000E+00  0.0000E+00  0.2240E+03  0.2240E+03
     -4.623  0.0000E+00  0.0000E+00  0.2240E+03  0.2240E+03
     -4.384  0.0000E+00  0.0000E+00  0.2240E+03  0.2240E+03
     -4.145  0.0000E+00  0.0000E+00  0.2240E+03  0.2240E+03
     -3.907  0.0000E+00  0.0000E+00  0.2240E+03  0.2240E+03
     -3.668  0.0000E+00  0.0000E+00  0.2240E+03  0.2240E+03
     -3.430  0.0000E+00  0.0000E+00  0.2240E+03  0.2240E+03
     -3.191  0.0000E+00  0.0000E+00  0.2240E+03  0.2240E+03
     -2.952  0.0000E+00  0.0000E+00  0.2240E+03  0.2240E+03
     -2.714  0.2587E-04  0.0000E+00  0.2240E+03  0.2240E+03
     -2.475  0.1504E+02  0.0000E+00  0.2276E+03  0.2240E+03
     -2.236  0.1853E+02  0.0000E+00  0.2320E+03  0.2240E+03
     -1.998  0.2230E+02  0.0000E+00  0.2373E+03  0.2240E+03
     -1.759  0.1238E+00  0.0000E+00  0.2374E+03  0.2240E+03
     -1.520  0.2222E+02  0.0000E+00  0.2427E+03  0.2240E+03
     -1.282  0.2918E+02  0.9562E-15  0.2496E+03  0.2240E+03
     -1.043  0.7800E+02  0.8204E-01  0.2682E+03  0.2240E+03
     -0.804  0.7179E+02  0.2112E+02  0.2854E+03  0.2291E+03
     -0.566  0.7034E+02  0.2801E+02  0.3022E+03  0.2357E+03
     -0.327  0.9466E+02  0.1575E+02  0.3248E+03  0.2395E+03
     -0.088  0.1034E+03  0.1434E+02  0.3494E+03  0.2429E+03
      0.150  0.5478E+02  0.2628E+02  0.3625E+03  0.2492E+03
      0.389  0.4752E+02  0.5142E+02  0.3739E+03  0.2615E+03
      0.628  0.5241E+02  0.7859E+02  0.3864E+03  0.2802E+03
      0.866  0.4335E+02  0.7163E+02  0.3967E+03  0.2973E+03
      1.105  0.6268E+02  0.7673E+02  0.4117E+03  0.3156E+03
      1.344  0.8325E+02  0.2950E+02  0.4315E+03  0.3227E+03
      1.582  0.8082E+02  0.3750E+02  0.4508E+03  0.3316E+03
      1.821  0.4218E+02  0.4967E+02  0.4609E+03  0.3435E+03
      2.060  0.3964E+02  0.4359E+02  0.4704E+03  0.3539E+03
      2.298  0.4860E+02  0.2835E+02  0.4820E+03  0.3607E+03
      2.537  0.4295E+02  0.5085E+02  0.4922E+03  0.3728E+03
      2.776  0.5581E+02  0.6809E+02  0.5055E+03  0.3890E+03
      3.014  0.5567E+02  0.8220E+02  0.5188E+03  0.4087E+03
      3.253  0.5438E+02  0.2905E+02  0.5318E+03  0.4156E+03
      3.492  0.4621E+02  0.2203E+02  0.5428E+03  0.4208E+03
      3.730  0.5603E+02  0.4751E+02  0.5562E+03  0.4322E+03
      3.969  0.3767E+02  0.5553E+02  0.5652E+03  0.4454E+03
      4.208  0.2709E+02  0.1072E+02  0.5716E+03  0.4480E+03
      4.446  0.1616E+02  0.5216E-03  0.5755E+03  0.4480E+03
      4.685  0.2090E+01  0.0000E+00  0.5760E+03  0.4480E+03
      4.924  0.1297E-03  0.0000E+00  0.5760E+03  0.4480E+03
      5.162  0.0000E+00  0.0000E+00  0.5760E+03  0.4480E+03
      5.401  0.0000E+00  0.0000E+00  0.5760E+03  0.4480E+03
      5.640  0.0000E+00  0.0000E+00  0.5760E+03  0.4480E+03
      5.878  0.0000E+00  0.0000E+00  0.5760E+03  0.4480E+03
      6.117  0.0000E+00  0.0000E+00  0.5760E+03  0.4480E+03
      6.356  0.0000E+00  0.5956E-11  0.5760E+03  0.4480E+03
      6.594  0.0000E+00  0.1363E+01  0.5760E+03  0.4483E+03
      6.833  0.4652E-15  0.5351E+02  0.5760E+03  0.4611E+03
      7.072  0.3143E-01  0.7695E+02  0.5760E+03  0.4795E+03
      7.310  0.2014E+00  0.5794E+02  0.5761E+03  0.4933E+03
      7.549  0.9649E+00  0.6876E+02  0.5763E+03  0.5097E+03
      7.788  0.1460E+01  0.6355E+02  0.5766E+03  0.5249E+03
      8.026  0.3085E+01  0.9767E+02  0.5774E+03  0.5482E+03
      8.265  0.8392E+01  0.7016E+02  0.5794E+03  0.5649E+03
      8.504  0.1101E+02  0.3538E+02  0.5820E+03  0.5734E+03
      8.742  0.2231E+02  0.1309E+02  0.5873E+03  0.5765E+03
      8.981  0.2763E+02  0.8418E+01  0.5939E+03  0.5785E+03
      9.220  0.2844E+02  0.1153E+02  0.6007E+03  0.5813E+03
      9.458  0.3227E+02  0.2059E+02  0.6084E+03  0.5862E+03
      9.697  0.2936E+02  0.2558E+02  0.6154E+03  0.5923E+03
      9.936  0.2077E+02  0.4169E+02  0.6204E+03  0.6022E+03
     10.174  0.2177E+02  0.3275E+02  0.6256E+03  0.6100E+03
     10.413  0.2580E+02  0.3384E+02  0.6317E+03  0.6181E+03
     10.652  0.4029E+02  0.3276E+02  0.6413E+03  0.6259E+03
     10.890  0.3982E+02  0.2352E+02  0.6508E+03  0.6315E+03
     11.129  0.4463E+02  0.3401E+02  0.6615E+03  0.6397E+03
     11.368  0.4032E+02  0.2311E+02  0.6711E+03  0.6452E+03
     11.606  0.3871E+02  0.3584E+02  0.6804E+03  0.6537E+03
     11.845  0.4758E+02  0.5239E+02  0.6917E+03  0.6662E+03
     12.084  0.3018E+02  0.5808E+02  0.6989E+03  0.6801E+03
     12.322  0.2902E+02  0.4578E+02  0.7058E+03  0.6910E+03
     12.561  0.3355E+02  0.3107E+02  0.7138E+03  0.6984E+03
     12.800  0.4121E+02  0.3256E+02  0.7237E+03  0.7062E+03
     13.038  0.1968E+02  0.3530E+02  0.7284E+03  0.7146E+03
     13.277  0.1499E+02  0.3657E+02  0.7320E+03  0.7234E+03
     13.515  0.1852E+00  0.2896E+02  0.7320E+03  0.7303E+03
     13.754  0.0000E+00  0.7258E+01  0.7320E+03  0.7320E+03
     13.993  0.0000E+00  0.4054E-05  0.7320E+03  0.7320E+03
     14.231  0.0000E+00  0.0000E+00  0.7320E+03  0.7320E+03
     14.470  0.0000E+00  0.0000E+00  0.7320E+03  0.7320E+03
     14.709  0.0000E+00  0.0000E+00  0.7320E+03  0.7320E+03
     14.947  0.0000E+00  0.0000E+00  0.7320E+03  0.7320E+03
     15.186  0.0000E+00  0.0000E+00  0.7320E+03  0.7320E+03
     15.425  0.0000E+00  0.0000E+00  0.7320E+03  0.7320E+03
     15.663  0.0000E+00  0.0000E+00  0.7320E+03  0.7320E+03
     15.902  0.0000E+00  0.0000E+00  0.7320E+03  0.7320E+03
     16.141  0.0000E+00  0.0000E+00  0.7320E+03  0.7320E+03
     16.379  0.0000E+00  0.0000E+00  0.7320E+03  0.7320E+03
     16.618  0.0000E+00  0.0000E+00  0.7320E+03  0.7320E+03
     16.857  0.0000E+00  0.0000E+00  0.7320E+03  0.7320E+03
