 vasp.5.4.4.18Apr17-6-g9f103f2a35 (build Oct 25 2017 14:42:18) complex          
  
 executed on             LinuxIFC date 2021.06.15  04:26:57
 running on   48 total cores
 distrk:  each k-point on   24 cores,    2 groups
 distr:  one band on NCORES_PER_BAND=   6 cores,    4 groups


--------------------------------------------------------------------------------------------------------


 INCAR:
 POTCAR:    PAW_PBE Li_sv 10Sep2004               
 POTCAR:    PAW_PBE Fe_pv 02Aug2007               
 POTCAR:    PAW_PBE S 06Sep2000                   
 POTCAR:    PAW_PBE O 08Apr2002                   

 ----------------------------------------------------------------------------- 
|                                                                             |
|           W    W    AA    RRRRR   N    N  II  N    N   GGGG   !!!           |
|           W    W   A  A   R    R  NN   N  II  NN   N  G    G  !!!           |
|           W    W  A    A  R    R  N N  N  II  N N  N  G       !!!           |
|           W WW W  AAAAAA  RRRRR   N  N N  II  N  N N  G  GGG   !            |
|           WW  WW  A    A  R   R   N   NN  II  N   NN  G    G                |
|           W    W  A    A  R    R  N    N  II  N    N   GGGG   !!!           |
|                                                                             |
|      You have enabled k-point parallelism (KPAR>1).                         |
|      This developmental code was originally  written by Paul Kent at ORNL,  |
|      and carefully double checked in Vienna.                                |
|      GW as well as linear response parallelism added by Martijn Marsman     |
|      and Georg Kresse.                                                      |
|      Carefully verify results versus KPAR=1.                                |
|      Report problems to Paul Kent and Vienna.                               |
|                                                                             |
 ----------------------------------------------------------------------------- 

 POTCAR:    PAW_PBE Li_sv 10Sep2004               
  local pseudopotential read in
  atomic valenz-charges read in
  non local Contribution for L=           0  read in
    real space projection operators read in
  non local Contribution for L=           0  read in
    real space projection operators read in
  non local Contribution for L=           1  read in
    real space projection operators read in
    PAW grid and wavefunctions read in
 
   number of l-projection  operators is LMAX  =           3
   number of lm-projection operators is LMMAX =           5
 
 POTCAR:    PAW_PBE Fe_pv 02Aug2007               
  local pseudopotential read in
  partial core-charges read in
  partial kinetic energy density read in
  atomic valenz-charges read in
  non local Contribution for L=           1  read in
    real space projection operators read in
  non local Contribution for L=           1  read in
    real space projection operators read in
  non local Contribution for L=           2  read in
    real space projection operators read in
  non local Contribution for L=           2  read in
    real space projection operators read in
  non local Contribution for L=           0  read in
    real space projection operators read in
  non local Contribution for L=           0  read in
    real space projection operators read in
    PAW grid and wavefunctions read in
 
   number of l-projection  operators is LMAX  =           6
   number of lm-projection operators is LMMAX =          18
 
 POTCAR:    PAW_PBE S 06Sep2000                   
  local pseudopotential read in
  partial core-charges read in
  partial kinetic energy density read in
  atomic valenz-charges read in
  non local Contribution for L=           0  read in
    real space projection operators read in
  non local Contribution for L=           0  read in
    real space projection operators read in
  non local Contribution for L=           1  read in
    real space projection operators read in
  non local Contribution for L=           1  read in
    real space projection operators read in
    PAW grid and wavefunctions read in
 
   number of l-projection  operators is LMAX  =           4
   number of lm-projection operators is LMMAX =           8
 
 POTCAR:    PAW_PBE O 08Apr2002                   
  local pseudopotential read in
  partial core-charges read in
  partial kinetic energy density read in
  kinetic energy density of atom read in
  atomic valenz-charges read in
  non local Contribution for L=           0  read in
    real space projection operators read in
  non local Contribution for L=           0  read in
    real space projection operators read in
  non local Contribution for L=           1  read in
    real space projection operators read in
  non local Contribution for L=           1  read in
    real space projection operators read in
    PAW grid and wavefunctions read in
 
   number of l-projection  operators is LMAX  =           4
   number of lm-projection operators is LMMAX =           8
 

 ----------------------------------------------------------------------------- 
|                                                                             |
|  ADVICE TO THIS USER RUNNING 'VASP/VAMP'   (HEAR YOUR MASTER'S VOICE ...):  |
|                                                                             |
|      You have a (more or less) 'large supercell' and for larger cells       |
|      it might be more efficient to use real space projection opertators     |
|      So try LREAL= Auto  in the INCAR   file.                               |
|      Mind:          For very  accurate calculation you might also keep the  |
|      reciprocal projection scheme          (i.e. LREAL=.FALSE.)             |
|                                                                             |
 ----------------------------------------------------------------------------- 

  PAW_PBE Li_sv 10Sep2004               :
 energy of atom  1       EATOM= -202.7858
 kinetic energy error for atom=    0.0072 (will be added to EATOM!!)
  PAW_PBE Fe_pv 02Aug2007               :
 energy of atom  2       EATOM=-2457.4239
 kinetic energy error for atom=    0.0041 (will be added to EATOM!!)
  PAW_PBE S 06Sep2000                   :
 energy of atom  3       EATOM= -276.8230
 kinetic energy error for atom=    0.0008 (will be added to EATOM!!)
  PAW_PBE O 08Apr2002                   :
 energy of atom  4       EATOM= -432.3788
 kinetic energy error for atom=    0.0129 (will be added to EATOM!!)
 
 
 POSCAR: # Compound: Li64Fe32S32O32. Old comment:
  positions in direct lattice
  No initial velocities read in
 exchange correlation table for  LEXCH =        8
   RHO(1)=    0.500       N(1)  =     2000
   RHO(2)=  100.500       N(2)  =     4000
 


--------------------------------------------------------------------------------------------------------


 ion  position               nearest neighbor table
   1  0.125  0.251  0.468- 133 1.96 149 1.96 105 2.46
   2  0.625  0.250  0.468- 134 1.96 150 1.96 106 2.46
   3  0.125  0.750  0.468- 135 1.96 151 1.96 107 2.46
   4  0.625  0.750  0.468- 136 1.96 152 1.96 108 2.46
   5  0.125  0.250  0.968- 129 1.96 145 1.96 109 2.46
   6  0.625  0.250  0.968- 130 1.96 146 1.96 110 2.46
   7  0.125  0.750  0.968- 131 1.96 147 1.96 111 2.46
   8  0.625  0.750  0.968- 132 1.96 148 1.96 112 2.46
   9  0.125  0.000  0.282- 137 1.96 153 1.96  97 2.46
  10  0.625  0.000  0.282- 138 1.96 154 1.96  98 2.46
  11  0.125  0.500  0.282- 139 1.96 155 1.96  99 2.46
  12  0.625  0.500  0.282- 140 1.96 156 1.96 100 2.46
  13  0.125  0.000  0.782- 141 1.96 157 1.96 101 2.46
  14  0.625  0.000  0.782- 142 1.96 158 1.96 102 2.46
  15  0.125  0.500  0.782- 143 1.96 159 1.96 103 2.46
  16  0.625  0.500  0.782- 144 1.96 160 1.96 104 2.46
  17  0.375  0.250  0.032- 130 1.96 145 1.96 121 2.46
  18  0.875  0.250  0.032- 129 1.96 146 1.96 122 2.46
  19  0.375  0.750  0.032- 132 1.96 147 1.96 123 2.46
  20  0.875  0.750  0.032- 131 1.96 148 1.96 124 2.46
  21  0.375  0.250  0.532- 134 1.96 149 1.96 125 2.46
  22  0.875  0.250  0.532- 133 1.96 150 1.96 126 2.46
  23  0.375  0.750  0.532- 136 1.96 151 1.96 127 2.46
  24  0.875  0.750  0.532- 135 1.96 152 1.96 128 2.46
  25  0.375  0.000  0.218- 138 1.96 153 1.96 113 2.46
  26  0.875  0.000  0.218- 137 1.96 154 1.96 114 2.46
  27  0.375  0.500  0.218- 140 1.96 155 1.96 115 2.46
  28  0.875  0.500  0.218- 139 1.96 156 1.96 116 2.46
  29  0.375  0.000  0.718- 142 1.96 157 1.96 117 2.46
  30  0.875  0.000  0.718- 141 1.96 158 1.96 118 2.46
  31  0.375  0.500  0.718- 144 1.96 159 1.96 119 2.46
  32  0.875  0.500  0.718- 143 1.96 160 1.96 120 2.46
  33  0.269  0.375  0.375- 149 2.01 155 2.01 119 2.56 121 2.56
  34  0.769  0.375  0.375- 150 2.01 156 2.01 120 2.56 122 2.56
  35  0.269  0.875  0.375- 151 2.01 153 2.01 117 2.56 123 2.56
  36  0.769  0.875  0.375- 152 2.01 154 2.01 118 2.56 124 2.56
  37  0.269  0.375  0.875- 145 2.01 159 2.01 115 2.56 125 2.56
  38  0.769  0.375  0.875- 146 2.01 160 2.01 116 2.56 126 2.56
  39  0.269  0.875  0.875- 147 2.01 157 2.01 113 2.56 127 2.56
  40  0.769  0.875  0.875- 148 2.01 158 2.01 114 2.56 128 2.56
  41  0.231  0.125  0.125- 145 2.01 153 2.01 101 2.56 105 2.56
  42  0.731  0.125  0.125- 146 2.01 154 2.01 102 2.56 106 2.56
  43  0.231  0.625  0.125- 147 2.01 155 2.01 103 2.56 107 2.56
  44  0.731  0.625  0.125- 148 2.01 156 2.01 104 2.56 108 2.56
  45  0.231  0.125  0.625- 149 2.01 157 2.01  97 2.56 109 2.56
  46  0.731  0.125  0.625- 150 2.01 158 2.01  98 2.56 110 2.56
  47  0.231  0.625  0.625- 151 2.01 159 2.01  99 2.56 111 2.56
  48  0.731  0.625  0.625- 152 2.01 160 2.01 100 2.56 112 2.56
  49  0.019  0.375  0.125- 129 2.01 139 2.01 103 2.56 105 2.56
  50  0.519  0.375  0.125- 130 2.01 140 2.01 104 2.56 106 2.56
  51  0.019  0.875  0.125- 131 2.01 137 2.01 101 2.56 107 2.56
  52  0.519  0.875  0.125- 132 2.01 138 2.01 102 2.56 108 2.56
  53  0.019  0.375  0.625- 133 2.01 143 2.01  99 2.56 109 2.56
  54  0.519  0.375  0.625- 134 2.01 144 2.01 100 2.56 110 2.56
  55  0.019  0.875  0.625- 135 2.01 141 2.01  97 2.56 111 2.56
  56  0.519  0.875  0.625- 136 2.01 142 2.01  98 2.56 112 2.56
  57  0.481  0.125  0.375- 134 2.01 138 2.01 117 2.56 121 2.56
  58  0.981  0.125  0.375- 133 2.01 137 2.01 118 2.56 122 2.56
  59  0.481  0.625  0.375- 136 2.01 140 2.01 119 2.56 123 2.56
  60  0.981  0.625  0.375- 135 2.01 139 2.01 120 2.56 124 2.56
  61  0.481  0.125  0.875- 130 2.01 142 2.01 113 2.56 125 2.56
  62  0.981  0.125  0.875- 129 2.01 141 2.01 114 2.56 126 2.56
  63  0.481  0.625  0.875- 132 2.01 144 2.01 115 2.56 127 2.56
  64  0.981  0.625  0.875- 131 2.01 143 2.01 116 2.56 128 2.56
  65  0.486  0.375  0.375- 134 2.00 140 2.00 119 2.62 121 2.62
  66  0.986  0.375  0.375- 133 2.00 139 2.00 120 2.62 122 2.62
  67  0.486  0.875  0.375- 136 2.00 138 2.00 117 2.62 123 2.62
  68  0.986  0.875  0.375- 135 2.00 137 2.00 118 2.62 124 2.62
  69  0.486  0.375  0.875- 130 2.00 144 2.00 115 2.62 125 2.62
  70  0.986  0.375  0.875- 129 2.00 143 2.00 116 2.62 126 2.62
  71  0.486  0.875  0.875- 132 2.00 142 2.00 113 2.62 127 2.62
  72  0.986  0.875  0.875- 131 2.00 141 2.00 114 2.62 128 2.62
  73  0.014  0.125  0.125- 129 2.00 137 2.00 101 2.62 105 2.62
  74  0.514  0.125  0.125- 130 2.00 138 2.00 102 2.62 106 2.62
  75  0.014  0.625  0.125- 131 2.00 139 2.00 103 2.62 107 2.62
  76  0.514  0.625  0.125- 132 2.00 140 2.00 104 2.62 108 2.62
  77  0.014  0.125  0.625- 133 2.00 141 2.00  97 2.62 109 2.62
  78  0.514  0.125  0.625- 134 2.00 142 2.00  98 2.62 110 2.62
  79  0.014  0.625  0.625- 135 2.00 143 2.00  99 2.62 111 2.62
  80  0.514  0.625  0.625- 136 2.00 144 2.00 100 2.62 112 2.62
  81  0.236  0.375  0.125- 145 2.00 155 2.00 103 2.62 105 2.62
  82  0.736  0.375  0.125- 146 2.00 156 2.00 104 2.62 106 2.62
  83  0.236  0.875  0.125- 147 2.00 153 2.00 101 2.62 107 2.62
  84  0.736  0.875  0.125- 148 2.00 154 2.00 102 2.62 108 2.62
  85  0.236  0.375  0.625- 149 2.00 159 2.00  99 2.62 109 2.62
  86  0.736  0.375  0.625- 150 2.00 160 2.00 100 2.62 110 2.62
  87  0.236  0.875  0.625- 151 2.00 157 2.00  97 2.62 111 2.62
  88  0.736  0.875  0.625- 152 2.00 158 2.00  98 2.62 112 2.62
  89  0.264  0.125  0.375- 149 2.00 153 2.00 117 2.62 121 2.62
  90  0.764  0.125  0.375- 150 2.00 154 2.00 118 2.62 122 2.62
  91  0.264  0.625  0.375- 151 2.00 155 2.00 119 2.62 123 2.62
  92  0.764  0.625  0.375- 152 2.00 156 2.00 120 2.62 124 2.62
  93  0.264  0.125  0.875- 145 2.00 157 2.00 113 2.62 125 2.62
  94  0.764  0.125  0.875- 146 2.00 158 2.00 114 2.62 126 2.62
  95  0.264  0.625  0.875- 147 2.00 159 2.00 115 2.62 127 2.62
  96  0.764  0.625  0.875- 148 2.00 160 2.00 116 2.62 128 2.62
  97  0.125  0.000  0.501-   9 2.46  45 2.56  55 2.56  77 2.62  87 2.62
  98  0.625  0.000  0.501-  10 2.46  46 2.56  56 2.56  78 2.62  88 2.62
  99  0.125  0.500  0.501-  11 2.46  47 2.56  53 2.56  79 2.62  85 2.62
 100  0.625  0.500  0.501-  12 2.46  48 2.56  54 2.56  80 2.62  86 2.62
 101  0.125  0.000  0.001-  13 2.46  41 2.56  51 2.56  73 2.62  83 2.62
 102  0.625  0.000  0.001-  14 2.46  42 2.56  52 2.56  74 2.62  84 2.62
 103  0.125  0.500  0.001-  15 2.46  43 2.56  49 2.56  75 2.62  81 2.62
 104  0.625  0.500  0.001-  16 2.46  44 2.56  50 2.56  76 2.62  82 2.62
 105  0.125  0.250  0.249-   1 2.46  41 2.56  49 2.56  73 2.62  81 2.62
 106  0.625  0.250  0.249-   2 2.46  42 2.56  50 2.56  74 2.62  82 2.62
 107  0.125  0.750  0.249-   3 2.46  43 2.56  51 2.56  75 2.62  83 2.62
 108  0.625  0.750  0.249-   4 2.46  44 2.56  52 2.56  76 2.62  84 2.62
 109  0.125  0.250  0.749-   5 2.46  45 2.56  53 2.56  77 2.62  85 2.62
 110  0.625  0.250  0.749-   6 2.46  46 2.56  54 2.56  78 2.62  86 2.62
 111  0.125  0.750  0.749-   7 2.46  47 2.56  55 2.56  79 2.62  87 2.62
 112  0.625  0.750  0.749-   8 2.46  48 2.56  56 2.56  80 2.62  88 2.62
 113  0.375  0.000  0.999-  25 2.46  39 2.56  61 2.56  71 2.62  93 2.62
 114  0.875  0.000  0.999-  26 2.46  40 2.56  62 2.56  72 2.62  94 2.62
 115  0.375  0.500  0.999-  27 2.46  37 2.56  63 2.56  69 2.62  95 2.62
 116  0.875  0.500  0.999-  28 2.46  38 2.56  64 2.56  70 2.62  96 2.62
 117  0.375  0.000  0.499-  29 2.46  35 2.56  57 2.56  67 2.62  89 2.62
 118  0.875  0.000  0.499-  30 2.46  36 2.56  58 2.56  68 2.62  90 2.62
 119  0.375  0.500  0.499-  31 2.46  33 2.56  59 2.56  65 2.62  91 2.62
 120  0.875  0.500  0.499-  32 2.46  34 2.56  60 2.56  66 2.62  92 2.62
 121  0.375  0.250  0.251-  17 2.46  33 2.56  57 2.56  65 2.62  89 2.62
 122  0.875  0.250  0.251-  18 2.46  34 2.56  58 2.56  66 2.62  90 2.62
 123  0.375  0.750  0.251-  19 2.46  35 2.56  59 2.56  67 2.62  91 2.62
 124  0.875  0.750  0.251-  20 2.46  36 2.56  60 2.56  68 2.62  92 2.62
 125  0.375  0.250  0.751-  21 2.46  37 2.56  61 2.56  69 2.62  93 2.62
 126  0.875  0.250  0.751-  22 2.46  38 2.56  62 2.56  70 2.62  94 2.62
 127  0.375  0.750  0.751-  23 2.46  39 2.56  63 2.56  71 2.62  95 2.62
 128  0.875  0.750  0.751-  24 2.46  40 2.56  64 2.56  72 2.62  96 2.62
 129  0.000  0.250  0.000-   5 1.96  18 1.96  70 2.00  73 2.00  49 2.01  62 2.01
 130  0.500  0.250  0.000-   6 1.96  17 1.96  69 2.00  74 2.00  50 2.01  61 2.01
 131  0.000  0.750  0.000-   7 1.96  20 1.96  72 2.00  75 2.00  51 2.01  64 2.01
 132  0.500  0.750  0.000-   8 1.96  19 1.96  71 2.00  76 2.00  52 2.01  63 2.01
 133  0.000  0.250  0.500-  22 1.96   1 1.96  66 2.00  77 2.00  53 2.01  58 2.01
 134  0.500  0.250  0.500-   2 1.96  21 1.96  65 2.00  78 2.00  54 2.01  57 2.01
 135  0.000  0.750  0.500-   3 1.96  24 1.96  68 2.00  79 2.00  55 2.01  60 2.01
 136  0.500  0.750  0.500-   4 1.96  23 1.96  67 2.00  80 2.00  56 2.01  59 2.01
 137  0.000  0.000  0.250-   9 1.96  26 1.96  68 2.00  73 2.00  51 2.01  58 2.01
 138  0.500  0.000  0.250-  10 1.96  25 1.96  67 2.00  74 2.00  52 2.01  57 2.01
 139  0.000  0.500  0.250-  11 1.96  28 1.96  66 2.00  75 2.00  49 2.01  60 2.01
 140  0.500  0.500  0.250-  12 1.96  27 1.96  65 2.00  76 2.00  50 2.01  59 2.01
 141  0.000  0.000  0.750-  13 1.96  30 1.96  72 2.00  77 2.00  55 2.01  62 2.01
 142  0.500  0.000  0.750-  14 1.96  29 1.96  71 2.00  78 2.00  56 2.01  61 2.01
 143  0.000  0.500  0.750-  15 1.96  32 1.96  70 2.00  79 2.00  53 2.01  64 2.01
 144  0.500  0.500  0.750-  16 1.96  31 1.96  69 2.00  80 2.00  54 2.01  63 2.01
 145  0.250  0.250  0.000-   5 1.96  17 1.96  81 2.00  93 2.00  37 2.01  41 2.01
 146  0.750  0.250  0.000-   6 1.96  18 1.96  82 2.00  94 2.00  38 2.01  42 2.01
 147  0.250  0.750  0.000-   7 1.96  19 1.96  83 2.00  95 2.00  39 2.01  43 2.01
 148  0.750  0.750  0.000-   8 1.96  20 1.96  84 2.00  96 2.00  40 2.01  44 2.01
 149  0.250  0.250  0.500-  21 1.96   1 1.96  85 2.00  89 2.00  33 2.01  45 2.01
 150  0.750  0.250  0.500-   2 1.96  22 1.96  86 2.00  90 2.00  34 2.01  46 2.01
 151  0.250  0.750  0.500-   3 1.96  23 1.96  87 2.00  91 2.00  35 2.01  47 2.01
 152  0.750  0.750  0.500-   4 1.96  24 1.96  88 2.00  92 2.00  36 2.01  48 2.01
 153  0.250  0.000  0.250-   9 1.96  25 1.96  83 2.00  89 2.00  35 2.01  41 2.01
 154  0.750  0.000  0.250-  10 1.96  26 1.96  84 2.00  90 2.00  36 2.01  42 2.01
 155  0.250  0.500  0.250-  11 1.96  27 1.96  81 2.00  91 2.00  33 2.01  43 2.01
 156  0.750  0.500  0.250-  12 1.96  28 1.96  82 2.00  92 2.00  34 2.01  44 2.01
 157  0.250  0.000  0.750-  13 1.96  29 1.96  87 2.00  93 2.00  39 2.01  45 2.01
 158  0.750  0.000  0.750-  14 1.96  30 1.96  88 2.00  94 2.00  40 2.01  46 2.01
 159  0.250  0.500  0.750-  15 1.96  31 1.96  85 2.00  95 2.00  37 2.01  47 2.01
 160  0.750  0.500  0.750-  16 1.96  32 1.96  86 2.00  96 2.00  38 2.01  48 2.01
 
  LATTYP: Found a simple orthorhombic cell.
 ALAT       =    11.2102424200
 B/A-ratio  =     1.0059574590
 C/A-ratio  =     1.3759579358
  
  Lattice vectors:
  
 A1 = (   0.0000000000,  11.2102424200,   0.0000000000)
 A2 = (   0.0000000000,   0.0000000000, -11.2770269800)
 A3 = ( -15.4248220200,   0.0000000000,   0.0000000000)


Analysis of symmetry for initial positions (statically):
=====================================================================
 Subroutine PRICEL returns:
 Original cell was already a primitive cell.
 

 Routine SETGRP: Setting up the symmetry group for a 
 simple orthorhombic supercell.


 Subroutine GETGRP returns: Found  1 space group operations
 (whereof  1 operations were pure point group operations)
 out of a pool of  8 trial point group operations.


The static configuration has the point symmetry C_1 .


Analysis of symmetry for dynamics (positions and initial velocities):
=====================================================================
 Subroutine PRICEL returns:
 Original cell was already a primitive cell.
 

 Routine SETGRP: Setting up the symmetry group for a 
 simple orthorhombic supercell.


 Subroutine GETGRP returns: Found  1 space group operations
 (whereof  1 operations were pure point group operations)
 out of a pool of  8 trial point group operations.


The dynamic configuration has the point symmetry C_1 .


Analysis of structural, dynamic, and magnetic symmetry:
=====================================================================
 Subroutine PRICEL returns:
 Original cell was already a primitive cell.
 

 Routine SETGRP: Setting up the symmetry group for a 
 simple orthorhombic supercell.


 Subroutine GETGRP returns: Found  1 space group operations
 (whereof  1 operations were pure point group operations)
 out of a pool of  8 trial point group operations.


The magnetic configuration has the point symmetry C_1 .


 Subroutine INISYM returns: Found  1 space group operations
 (whereof  1 operations are pure point group operations),
 and found     1 'primitive' translations

 
 
 KPOINTS: # No comment                            

Automatic generation of k-mesh.
Space group operators:
 irot       det(A)        alpha          n_x          n_y          n_z        tau_x        tau_y        tau_z
    1     1.000000     0.000000     1.000000     0.000000     0.000000     0.000000     0.000000     0.000000
 
 Subroutine IBZKPT returns following result:
 ===========================================
 
 Found     10 irreducible k-points:
 
 Following reciprocal coordinates:
            Coordinates               Weight
  0.000000  0.000000  0.000000      1.000000
  0.500000  0.000000  0.000000      1.000000
  0.000000  0.333333  0.000000      2.000000
  0.500000  0.333333  0.000000      2.000000
  0.000000  0.000000  0.333333      2.000000
  0.500000  0.000000  0.333333      2.000000
  0.000000  0.333333  0.333333      2.000000
  0.500000  0.333333  0.333333      2.000000
  0.000000 -0.333333  0.333333      2.000000
  0.500000 -0.333333  0.333333      2.000000
 
 Following cartesian coordinates:
            Coordinates               Weight
  0.000000  0.000000  0.000000      1.000000
  0.032415  0.000000  0.000000      1.000000
  0.000000  0.029735  0.000000      2.000000
  0.032415  0.029735  0.000000      2.000000
  0.000000  0.000000  0.029559      2.000000
  0.032415  0.000000  0.029559      2.000000
  0.000000  0.029735  0.029559      2.000000
  0.032415  0.029735  0.029559      2.000000
  0.000000 -0.029735  0.029559      2.000000
  0.032415 -0.029735  0.029559      2.000000
 


--------------------------------------------------------------------------------------------------------




 Dimension of arrays:
   k-points           NKPTS =     10   k-points in BZ     NKDIM =     10   number of bands    NBANDS=    732
   number of dos      NEDOS =    301   number of ions     NIONS =    160
   non local maximal  LDIM  =      6   non local SUM 2l+1 LMDIM =     18
   total plane-waves  NPLWV = ******
   max r-space proj   IRMAX =      1   max aug-charges    IRDMAX= 152654
   dimension x,y,z NGX =   128 NGY =   96 NGZ =   96
   dimension x,y,z NGXF=   256 NGYF=  192 NGZF=  192
   support grid    NGXF=   512 NGYF=  384 NGZF=  384
   ions per type =              64  32  32  32
   NGX,Y,Z   is equivalent  to a cutoff of  13.80, 14.24, 14.15 a.u.
   NGXF,Y,Z  is equivalent  to a cutoff of  27.59, 28.47, 28.30 a.u.

 SYSTEM =  unknown system                          
 POSCAR =  # Compound: Li64Fe32S32O32. Old comment:

 Startparameter for this run:
   NWRITE =      1    write-flag & timer
   PREC   = accura    normal or accurate (medium, high low for compatibility)
   ISTART =      0    job   : 0-new  1-cont  2-samecut
   ICHARG =      1    charge: 1-file 2-atom 10-const
   ISPIN  =      2    spin polarized calculation?
   LNONCOLLINEAR =      F non collinear calculations
   LSORBIT =      F    spin-orbit coupling
   INIWAV =      1    electr: 0-lowe 1-rand  2-diag
   LASPH  =      T    aspherical Exc in radial PAW
   METAGGA=      F    non-selfconsistent MetaGGA calc.

 Electronic Relaxation 1
   ENCUT  =  650.0 eV  47.77 Ry    6.91 a.u.  32.07 23.30 23.44*2*pi/ulx,y,z
   ENINI  =  650.0     initial cutoff
   ENAUG  =  628.9 eV  augmentation charge cutoff
   NELM   =    200;   NELMIN=  8; NELMDL=  0     # of ELM steps 
   EDIFF  = 0.1E-05   stopping-criterion for ELM
   LREAL  =      F    real-space projection
   NLSPLINE    = F    spline interpolate recip. space projectors
   LCOMPAT=      F    compatible to vasp.4.4
   GGA_COMPAT  = T    GGA compatible to vasp.4.4-vasp.4.6
   LMAXPAW     = -100 max onsite density
   LMAXMIX     =    4 max onsite mixed and CHGCAR
   VOSKOWN=      0    Vosko Wilk Nusair interpolation
   ROPT   =    0.00000   0.00000   0.00000   0.00000
 Ionic relaxation
   EDIFFG = 0.1E-04   stopping-criterion for IOM
   NSW    =      0    number of steps for IOM
   NBLOCK =      1;   KBLOCK =      1    inner block; outer block 
   IBRION =     -1    ionic relax: 0-MD 1-quasi-New 2-CG
   NFREE  =      0    steps in history (QN), initial steepest desc. (CG)
   ISIF   =      2    stress and relaxation
   IWAVPR =     10    prediction:  0-non 1-charg 2-wave 3-comb
   ISYM   =      2    0-nonsym 1-usesym 2-fastsym
   LCORR  =      T    Harris-Foulkes like correction to forces

   POTIM  = 0.5000    time-step for ionic-motion
   TEIN   =    0.0    initial temperature
   TEBEG  =    0.0;   TEEND  =   0.0 temperature during run
   SMASS  =  -3.00    Nose mass-parameter (am)
   estimated Nose-frequenzy (Omega)   =  0.10E-29 period in steps =****** mass=  -0.544E-26a.u.
   SCALEE = 1.0000    scale energy and forces
   NPACO  =    256;   APACO  = 16.0  distance and # of slots for P.C.
   PSTRESS=    0.0 pullay stress

  Mass of Ions in am
   POMASS =   7.01 55.85 32.07 16.00
  Ionic Valenz
   ZVAL   =   3.00 14.00  6.00  6.00
  Atomic Wigner-Seitz radii
   RWIGS  =  -1.00 -1.00 -1.00 -1.00
  virtual crystal weights 
   VCA    =   1.00  1.00  1.00  1.00
   NELECT =    1024.0000    total number of electrons
   NUPDOWN=      -1.0000    fix difference up-down

 DOS related values:
   EMIN   =  10.00;   EMAX   =-10.00  energy-range for DOS
   EFERMI =   0.00
   ISMEAR =     0;   SIGMA  =   0.05  broadening in eV -4-tet -1-fermi 0-gaus

 Electronic relaxation 2 (details)
   IALGO  =     38    algorithm
   LDIAG  =      T    sub-space diagonalisation (order eigenvalues)
   LSUBROT=      F    optimize rotation matrix (better conditioning)
   TURBO    =      0    0=normal 1=particle mesh
   IRESTART =      0    0=no restart 2=restart with 2 vectors
   NREBOOT  =      0    no. of reboots
   NMIN     =      0    reboot dimension
   EREF     =   0.00    reference energy to select bands
   IMIX   =      4    mixing-type and parameters
     AMIX     =   0.40;   BMIX     =  1.00
     AMIX_MAG =   1.60;   BMIX_MAG =  1.00
     AMIN     =   0.10
     WC   =   100.;   INIMIX=   1;  MIXPRE=   1;  MAXMIX= -45

 Intra band minimization:
   WEIMIN = 0.0000     energy-eigenvalue tresh-hold
   EBREAK =  0.34E-09  absolut break condition
   DEPER  =   0.30     relativ break condition  

   TIME   =   0.40     timestep for ELM

  volume/ion in A,a.u.               =      12.19        82.24
  Fermi-wavevector in a.u.,A,eV,Ry     =   1.320783  2.495918 23.734934  1.744468
  Thomas-Fermi vector in A             =   2.450584
 
 Write flags
   LWAVE        =      F    write WAVECAR
   LDOWNSAMPLE  =      F    k-point downsampling of WAVECAR
   LCHARG       =      T    write CHGCAR
   LVTOT        =      F    write LOCPOT, total local potential
   LVHAR        =      F    write LOCPOT, Hartree potential only
   LELF         =      F    write electronic localiz. function (ELF)
   LORBIT       =      0    0 simple, 1 ext, 2 COOP (PROOUT), +10 PAW based schemes


 Dipole corrections
   LMONO  =      F    monopole corrections only (constant potential shift)
   LDIPOL =      F    correct potential (dipole corrections)
   IDIPOL =      0    1-x, 2-y, 3-z, 4-all directions 
   EPSILON=  1.0000000 bulk dielectric constant

 LDA+U is selected, type is set to LDAUTYPE =  2
   angular momentum for each species LDAUL =    -1    2   -1   -1
   U (eV)           for each species LDAUU =   0.0  4.0  0.0  0.0
   J (eV)           for each species LDAUJ =   0.0  0.0  0.0  0.0
 Exchange correlation treatment:
   GGA     =    PE    GGA type
   LEXCH   =     8    internal setting for exchange type
   VOSKOWN=      0    Vosko Wilk Nusair interpolation
   LHFCALC =     F    Hartree Fock is set to
   LHFONE  =     F    Hartree Fock one center treatment
   AEXX    =    0.0000 exact exchange contribution

 Linear response parameters
   LEPSILON=     F    determine dielectric tensor
   LRPA    =     F    only Hartree local field effects (RPA)
   LNABLA  =     F    use nabla operator in PAW spheres
   LVEL    =     F    velocity operator in full k-point grid
   LINTERFAST=   F  fast interpolation
   KINTER  =     0    interpolate to denser k-point grid
   CSHIFT  =0.1000    complex shift for real part using Kramers Kronig
   OMEGAMAX=  -1.0    maximum frequency
   DEG_THRESHOLD= 0.2000000E-02 threshold for treating states as degnerate
   RTIME   =   -0.100 relaxation time in fs
  (WPLASMAI=    0.000 imaginary part of plasma frequency in eV, 0.658/RTIME)
   DFIELD  = 0.0000000 0.0000000 0.0000000 field for delta impulse in time
 
 Orbital magnetization related:
   ORBITALMAG=     F  switch on orbital magnetization
   LCHIMAG   =     F  perturbation theory with respect to B field
   DQ        =  0.001000  dq finite difference perturbation B field
   LLRAUG    =     F  two centre corrections for induced B field



--------------------------------------------------------------------------------------------------------


 Static calculation
 charge density and potential will be updated during run
 spin polarized calculation
 Variant of blocked Davidson
 Davidson routine will perform the subspace rotation
 perform sub-space diagonalisation
    after iterative eigenvector-optimisation
 modified Broyden-mixing scheme, WC =      100.0
 initial mixing is a Kerker type mixing with AMIX =  0.4000 and BMIX =      1.0000
 Hartree-type preconditioning will be used
 using additional bands          220
 reciprocal scheme for non local part
 use partial core corrections
 calculate Harris-corrections to forces 
   (improved forces if not selfconsistent)
 use gradient corrections 
 use of overlap-Matrix (Vanderbilt PP)
 Gauss-broadening in eV      SIGMA  =   0.05


--------------------------------------------------------------------------------------------------------


  energy-cutoff  :      650.00
  volume of cell :     1949.98
      direct lattice vectors                 reciprocal lattice vectors
    15.424822020  0.000000000  0.000000000     0.064830570  0.000000000  0.000000000
     0.000000000 11.210242420  0.000000000     0.000000000  0.089204137  0.000000000
     0.000000000  0.000000000 11.277026980     0.000000000  0.000000000  0.088675854

  length of vectors
    15.424822020 11.210242420 11.277026980     0.064830570  0.089204137  0.088675854


 
 k-points in units of 2pi/SCALE and weight: # No comment                            
   0.00000000  0.00000000  0.00000000       0.056
   0.03241528  0.00000000  0.00000000       0.056
   0.00000000  0.02973471  0.00000000       0.111
   0.03241528  0.02973471  0.00000000       0.111
   0.00000000  0.00000000  0.02955862       0.111
   0.03241528  0.00000000  0.02955862       0.111
   0.00000000  0.02973471  0.02955862       0.111
   0.03241528  0.02973471  0.02955862       0.111
   0.00000000 -0.02973471  0.02955862       0.111
   0.03241528 -0.02973471  0.02955862       0.111
 
 k-points in reciprocal lattice and weights: # No comment                            
   0.00000000  0.00000000  0.00000000       0.056
   0.50000000  0.00000000  0.00000000       0.056
   0.00000000  0.33333333  0.00000000       0.111
   0.50000000  0.33333333  0.00000000       0.111
   0.00000000  0.00000000  0.33333333       0.111
   0.50000000  0.00000000  0.33333333       0.111
   0.00000000  0.33333333  0.33333333       0.111
   0.50000000  0.33333333  0.33333333       0.111
   0.00000000 -0.33333333  0.33333333       0.111
   0.50000000 -0.33333333  0.33333333       0.111
 
 position of ions in fractional coordinates (direct lattice) 
   0.12500000  0.25089204  0.46751010
   0.62500000  0.25000000  0.46751010
   0.12500000  0.75000000  0.46751010
   0.62500000  0.75000000  0.46751010
   0.12500000  0.25000000  0.96751010
   0.62500000  0.25000000  0.96751010
   0.12500000  0.75000000  0.96751010
   0.62500000  0.75000000  0.96751010
   0.12500000  0.00000000  0.28248990
   0.62500000  0.00000000  0.28248990
   0.12500000  0.50000000  0.28248990
   0.62500000  0.50000000  0.28248990
   0.12500000  0.00000000  0.78248990
   0.62500000  0.00000000  0.78248990
   0.12500000  0.50000000  0.78248990
   0.62500000  0.50000000  0.78248990
   0.37500000  0.25000000  0.03248990
   0.87500000  0.25000000  0.03248990
   0.37500000  0.75000000  0.03248990
   0.87500000  0.75000000  0.03248990
   0.37500000  0.25000000  0.53248990
   0.87500000  0.25000000  0.53248990
   0.37500000  0.75000000  0.53248990
   0.87500000  0.75000000  0.53248990
   0.37500000  0.00000000  0.21751010
   0.87500000  0.00000000  0.21751010
   0.37500000  0.50000000  0.21751010
   0.87500000  0.50000000  0.21751010
   0.37500000  0.00000000  0.71751010
   0.87500000  0.00000000  0.71751010
   0.37500000  0.50000000  0.71751010
   0.87500000  0.50000000  0.71751010
   0.26924068  0.37500000  0.37500000
   0.76924068  0.37500000  0.37500000
   0.26924068  0.87500000  0.37500000
   0.76924068  0.87500000  0.37500000
   0.26924068  0.37500000  0.87500000
   0.76924068  0.37500000  0.87500000
   0.26924068  0.87500000  0.87500000
   0.76924068  0.87500000  0.87500000
   0.23075932  0.12500000  0.12500000
   0.73075932  0.12500000  0.12500000
   0.23075932  0.62500000  0.12500000
   0.73075932  0.62500000  0.12500000
   0.23075932  0.12500000  0.62500000
   0.73075932  0.12500000  0.62500000
   0.23075932  0.62500000  0.62500000
   0.73075932  0.62500000  0.62500000
   0.01924068  0.37500000  0.12500000
   0.51924068  0.37500000  0.12500000
   0.01924068  0.87500000  0.12500000
   0.51924068  0.87500000  0.12500000
   0.01924068  0.37500000  0.62500000
   0.51924068  0.37500000  0.62500000
   0.01924068  0.87500000  0.62500000
   0.51924068  0.87500000  0.62500000
   0.48075932  0.12500000  0.37500000
   0.98075932  0.12500000  0.37500000
   0.48075932  0.62500000  0.37500000
   0.98075932  0.62500000  0.37500000
   0.48075932  0.12500000  0.87500000
   0.98075932  0.12500000  0.87500000
   0.48075932  0.62500000  0.87500000
   0.98075932  0.62500000  0.87500000
   0.48606648  0.37500000  0.37500000
   0.98606648  0.37500000  0.37500000
   0.48606648  0.87500000  0.37500000
   0.98606648  0.87500000  0.37500000
   0.48606648  0.37500000  0.87500000
   0.98606648  0.37500000  0.87500000
   0.48606648  0.87500000  0.87500000
   0.98606648  0.87500000  0.87500000
   0.01393352  0.12500000  0.12500000
   0.51393352  0.12500000  0.12500000
   0.01393352  0.62500000  0.12500000
   0.51393352  0.62500000  0.12500000
   0.01393352  0.12500000  0.62500000
   0.51393352  0.12500000  0.62500000
   0.01393352  0.62500000  0.62500000
   0.51393352  0.62500000  0.62500000
   0.23606648  0.37500000  0.12500000
   0.73606648  0.37500000  0.12500000
   0.23606648  0.87500000  0.12500000
   0.73606648  0.87500000  0.12500000
   0.23606648  0.37500000  0.62500000
   0.73606648  0.37500000  0.62500000
   0.23606648  0.87500000  0.62500000
   0.73606648  0.87500000  0.62500000
   0.26393352  0.12500000  0.37500000
   0.76393352  0.12500000  0.37500000
   0.26393352  0.62500000  0.37500000
   0.76393352  0.62500000  0.37500000
   0.26393352  0.12500000  0.87500000
   0.76393352  0.12500000  0.87500000
   0.26393352  0.62500000  0.87500000
   0.76393352  0.62500000  0.87500000
   0.12500000  0.00000000  0.50106053
   0.62500000  0.00000000  0.50106053
   0.12500000  0.50000000  0.50106053
   0.62500000  0.50000000  0.50106053
   0.12500000  0.00000000  0.00106053
   0.62500000  0.00000000  0.00106053
   0.12500000  0.50000000  0.00106053
   0.62500000  0.50000000  0.00106053
   0.12500000  0.25000000  0.24893947
   0.62500000  0.25000000  0.24893947
   0.12500000  0.75000000  0.24893947
   0.62500000  0.75000000  0.24893947
   0.12500000  0.25000000  0.74893947
   0.62500000  0.25000000  0.74893947
   0.12500000  0.75000000  0.74893947
   0.62500000  0.75000000  0.74893947
   0.37500000  0.00000000  0.99893947
   0.87500000  0.00000000  0.99893947
   0.37500000  0.50000000  0.99893947
   0.87500000  0.50000000  0.99893947
   0.37500000  0.00000000  0.49893947
   0.87500000  0.00000000  0.49893947
   0.37500000  0.50000000  0.49893947
   0.87500000  0.50000000  0.49893947
   0.37500000  0.25000000  0.25106053
   0.87500000  0.25000000  0.25106053
   0.37500000  0.75000000  0.25106053
   0.87500000  0.75000000  0.25106053
   0.37500000  0.25000000  0.75106053
   0.87500000  0.25000000  0.75106053
   0.37500000  0.75000000  0.75106053
   0.87500000  0.75000000  0.75106053
   0.00000000  0.25000000  0.00000000
   0.50000000  0.25000000  0.00000000
   0.00000000  0.75000000  0.00000000
   0.50000000  0.75000000  0.00000000
   0.00000000  0.25000000  0.50000000
   0.50000000  0.25000000  0.50000000
   0.00000000  0.75000000  0.50000000
   0.50000000  0.75000000  0.50000000
   0.00000000  0.00000000  0.25000000
   0.50000000  0.00000000  0.25000000
   0.00000000  0.50000000  0.25000000
   0.50000000  0.50000000  0.25000000
   0.00000000  0.00000000  0.75000000
   0.50000000  0.00000000  0.75000000
   0.00000000  0.50000000  0.75000000
   0.50000000  0.50000000  0.75000000
   0.25000000  0.25000000  0.00000000
   0.75000000  0.25000000  0.00000000
   0.25000000  0.75000000  0.00000000
   0.75000000  0.75000000  0.00000000
   0.25000000  0.25000000  0.50000000
   0.75000000  0.25000000  0.50000000
   0.25000000  0.75000000  0.50000000
   0.75000000  0.75000000  0.50000000
   0.25000000  0.00000000  0.25000000
   0.75000000  0.00000000  0.25000000
   0.25000000  0.50000000  0.25000000
   0.75000000  0.50000000  0.25000000
   0.25000000  0.00000000  0.75000000
   0.75000000  0.00000000  0.75000000
   0.25000000  0.50000000  0.75000000
   0.75000000  0.50000000  0.75000000
 
 position of ions in cartesian coordinates  (Angst):
   1.92810275  2.81256061  5.27212395
   9.64051376  2.80256061  5.27212395
   1.92810275  8.40768182  5.27212395
   9.64051376  8.40768182  5.27212395
   1.92810275  2.80256061 10.91063744
   9.64051376  2.80256061 10.91063744
   1.92810275  8.40768182 10.91063744
   9.64051376  8.40768182 10.91063744
   1.92810275  0.00000000  3.18564628
   9.64051376  0.00000000  3.18564628
   1.92810275  5.60512121  3.18564628
   9.64051376  5.60512121  3.18564628
   1.92810275  0.00000000  8.82415977
   9.64051376  0.00000000  8.82415977
   1.92810275  5.60512121  8.82415977
   9.64051376  5.60512121  8.82415977
   5.78430826  2.80256061  0.36638954
  13.49671927  2.80256061  0.36638954
   5.78430826  8.40768182  0.36638954
  13.49671927  8.40768182  0.36638954
   5.78430826  2.80256061  6.00490303
  13.49671927  2.80256061  6.00490303
   5.78430826  8.40768182  6.00490303
  13.49671927  8.40768182  6.00490303
   5.78430826  0.00000000  2.45286721
  13.49671927  0.00000000  2.45286721
   5.78430826  5.60512121  2.45286721
  13.49671927  5.60512121  2.45286721
   5.78430826  0.00000000  8.09138070
  13.49671927  0.00000000  8.09138070
   5.78430826  5.60512121  8.09138070
  13.49671927  5.60512121  8.09138070
   4.15298957  4.20384091  4.22888512
  11.86540058  4.20384091  4.22888512
   4.15298957  9.80896212  4.22888512
  11.86540058  9.80896212  4.22888512
   4.15298957  4.20384091  9.86739861
  11.86540058  4.20384091  9.86739861
   4.15298957  9.80896212  9.86739861
  11.86540058  9.80896212  9.86739861
   3.55942144  1.40128030  1.40962837
  11.27183245  1.40128030  1.40962837
   3.55942144  7.00640151  1.40962837
  11.27183245  7.00640151  1.40962837
   3.55942144  1.40128030  7.04814186
  11.27183245  1.40128030  7.04814186
   3.55942144  7.00640151  7.04814186
  11.27183245  7.00640151  7.04814186
   0.29678406  4.20384091  1.40962837
   8.00919507  4.20384091  1.40962837
   0.29678406  9.80896212  1.40962837
   8.00919507  9.80896212  1.40962837
   0.29678406  4.20384091  7.04814186
   8.00919507  4.20384091  7.04814186
   0.29678406  9.80896212  7.04814186
   8.00919507  9.80896212  7.04814186
   7.41562695  1.40128030  4.22888512
  15.12803796  1.40128030  4.22888512
   7.41562695  7.00640151  4.22888512
  15.12803796  7.00640151  4.22888512
   7.41562695  1.40128030  9.86739861
  15.12803796  1.40128030  9.86739861
   7.41562695  7.00640151  9.86739861
  15.12803796  7.00640151  9.86739861
   7.49748887  4.20384091  4.22888512
  15.20989988  4.20384091  4.22888512
   7.49748887  9.80896212  4.22888512
  15.20989988  9.80896212  4.22888512
   7.49748887  4.20384091  9.86739861
  15.20989988  4.20384091  9.86739861
   7.49748887  9.80896212  9.86739861
  15.20989988  9.80896212  9.86739861
   0.21492214  1.40128030  1.40962837
   7.92733315  1.40128030  1.40962837
   0.21492214  7.00640151  1.40962837
   7.92733315  7.00640151  1.40962837
   0.21492214  1.40128030  7.04814186
   7.92733315  1.40128030  7.04814186
   0.21492214  7.00640151  7.04814186
   7.92733315  7.00640151  7.04814186
   3.64128336  4.20384091  1.40962837
  11.35369437  4.20384091  1.40962837
   3.64128336  9.80896212  1.40962837
  11.35369437  9.80896212  1.40962837
   3.64128336  4.20384091  7.04814186
  11.35369437  4.20384091  7.04814186
   3.64128336  9.80896212  7.04814186
  11.35369437  9.80896212  7.04814186
   4.07112765  1.40128030  4.22888512
  11.78353866  1.40128030  4.22888512
   4.07112765  7.00640151  4.22888512
  11.78353866  7.00640151  4.22888512
   4.07112765  1.40128030  9.86739861
  11.78353866  1.40128030  9.86739861
   4.07112765  7.00640151  9.86739861
  11.78353866  7.00640151  9.86739861
   1.92810275  0.00000000  5.65047312
   9.64051376  0.00000000  5.65047312
   1.92810275  5.60512121  5.65047312
   9.64051376  5.60512121  5.65047312
   1.92810275  0.00000000  0.01195963
   9.64051376  0.00000000  0.01195963
   1.92810275  5.60512121  0.01195963
   9.64051376  5.60512121  0.01195963
   1.92810275  2.80256061  2.80729712
   9.64051376  2.80256061  2.80729712
   1.92810275  8.40768182  2.80729712
   9.64051376  8.40768182  2.80729712
   1.92810275  2.80256061  8.44581061
   9.64051376  2.80256061  8.44581061
   1.92810275  8.40768182  8.44581061
   9.64051376  8.40768182  8.44581061
   5.78430826  0.00000000 11.26506735
  13.49671927  0.00000000 11.26506735
   5.78430826  5.60512121 11.26506735
  13.49671927  5.60512121 11.26506735
   5.78430826  0.00000000  5.62655386
  13.49671927  0.00000000  5.62655386
   5.78430826  5.60512121  5.62655386
  13.49671927  5.60512121  5.62655386
   5.78430826  2.80256061  2.83121637
  13.49671927  2.80256061  2.83121637
   5.78430826  8.40768182  2.83121637
  13.49671927  8.40768182  2.83121637
   5.78430826  2.80256061  8.46972986
  13.49671927  2.80256061  8.46972986
   5.78430826  8.40768182  8.46972986
  13.49671927  8.40768182  8.46972986
   0.00000000  2.80256061  0.00000000
   7.71241101  2.80256061  0.00000000
   0.00000000  8.40768182  0.00000000
   7.71241101  8.40768182  0.00000000
   0.00000000  2.80256061  5.63851349
   7.71241101  2.80256061  5.63851349
   0.00000000  8.40768182  5.63851349
   7.71241101  8.40768182  5.63851349
   0.00000000  0.00000000  2.81925675
   7.71241101  0.00000000  2.81925675
   0.00000000  5.60512121  2.81925675
   7.71241101  5.60512121  2.81925675
   0.00000000  0.00000000  8.45777023
   7.71241101  0.00000000  8.45777023
   0.00000000  5.60512121  8.45777023
   7.71241101  5.60512121  8.45777023
   3.85620551  2.80256061  0.00000000
  11.56861652  2.80256061  0.00000000
   3.85620551  8.40768182  0.00000000
  11.56861652  8.40768182  0.00000000
   3.85620551  2.80256061  5.63851349
  11.56861652  2.80256061  5.63851349
   3.85620551  8.40768182  5.63851349
  11.56861652  8.40768182  5.63851349
   3.85620551  0.00000000  2.81925675
  11.56861652  0.00000000  2.81925675
   3.85620551  5.60512121  2.81925675
  11.56861652  5.60512121  2.81925675
   3.85620551  0.00000000  8.45777023
  11.56861652  0.00000000  8.45777023
   3.85620551  5.60512121  8.45777023
  11.56861652  5.60512121  8.45777023
 


--------------------------------------------------------------------------------------------------------


 k-point  1 :   0.0000 0.0000 0.0000  plane waves:   73361
 k-point  2 :   0.5000 0.0000 0.0000  plane waves:   73360
 k-point  3 :   0.0000 0.3333 0.0000  plane waves:   73390
 k-point  4 :   0.5000 0.3333 0.0000  plane waves:   73436
 k-point  5 :   0.0000 0.0000 0.3333  plane waves:   73375
 k-point  6 :   0.5000 0.0000 0.3333  plane waves:   73362
 k-point  7 :   0.0000 0.3333 0.3333  plane waves:   73334
 k-point  8 :   0.5000 0.3333 0.3333  plane waves:   73372
 k-point  9 :   0.0000-0.3333 0.3333  plane waves:   73334
 k-point 10 :   0.5000-0.3333 0.3333  plane waves:   73372

 maximum and minimum number of plane-waves per node :     12308    12161

 maximum number of plane-waves:     73436
 maximum index in each direction: 
   IXMAX=   32   IYMAX=   23   IZMAX=   23
   IXMIN=  -32   IYMIN=  -23   IZMIN=  -23


 parallel 3D FFT for wavefunctions:
    minimum data exchange during FFTs selected (reduces bandwidth)
 parallel 3D FFT for charge:
    minimum data exchange during FFTs selected (reduces bandwidth)


 total amount of memory used by VASP MPI-rank0   984794. kBytes
=======================================================================

   base      :      30000. kBytes
   nonl-proj :     101936. kBytes
   fftplans  :      64934. kBytes
   grid      :      55554. kBytes
   one-center:        839. kBytes
   wavefun   :     731531. kBytes
 
     INWAV:  cpu time    0.0002: real time    0.0003
 Broyden mixing: mesh for mixing (old mesh)
   NGX = 65   NGY = 47   NGZ = 47
  (NGX  =256   NGY  =192   NGZ  =192)
  gives a total of 143585 points

 initial charge density was supplied:
 number of electron    1024.0000020 magnetization     128.0001055
 keeping initial charge density in first step


--------------------------------------------------------------------------------------------------------


 Maximum index for augmentation-charges         8055 (set IRDMAX)


--------------------------------------------------------------------------------------------------------


 First call to EWALD:  gamma=   0.142
 Maximum number of real-space cells 2x 3x 3
 Maximum number of reciprocal cells 3x 3x 3

    FEWALD:  cpu time    0.0195: real time    0.0195


--------------------------------------- Iteration      1(   1)  ---------------------------------------


    POTLOK:  cpu time    0.6713: real time    0.6970
    SETDIJ:  cpu time    1.6722: real time    1.6938
     EDDAV:  cpu time  353.0390: real time  360.4311
       DOS:  cpu time    0.0046: real time    0.0056
    --------------------------------------------
      LOOP:  cpu time  355.3872: real time  362.8275

 eigenvalue-minimisations  : 30688
 total energy-change (2. order) : 0.1345943E+05  (-0.5521204E+05)
 number of electron    1024.0000020 magnetization     128.0001055
 augmentation part     1024.0000020 magnetization     128.0001055

 Free energy of the ion-electron system (eV)
  ---------------------------------------------------
  alpha Z        PSCENC =      2574.33730679
  Ewald energy   TEWEN  =    -67378.53620541
  -Hartree energ DENC   =    -36045.54254935
  -exchange      EXHF   =         0.00000000
  -V(xc)+E(xc)   XCENC  =      4397.16328272
  PAW double counting   =    108725.82191982  -112342.66432617
  entropy T*S    EENTRO =        -0.02978032
  eigenvalues    EBANDS =      -780.40641757
  atomic energy  EATOM  =    114309.28505226
  Solvation  Ediel_sol  =         0.00000000
  ---------------------------------------------------
  free energy    TOTEN  =     13459.42828277 eV

  energy without entropy =    13459.45806309  energy(sigma->0) =    13459.44317293


--------------------------------------------------------------------------------------------------------




--------------------------------------- Iteration      1(   2)  ---------------------------------------


     EDDAV:  cpu time  341.9065: real time  347.7258
       DOS:  cpu time    0.0047: real time    0.0047
    --------------------------------------------
      LOOP:  cpu time  341.9112: real time  347.7305

 eigenvalue-minimisations  : 29280
 total energy-change (2. order) :-0.1205106E+05  (-0.1120294E+05)
 number of electron    1024.0000020 magnetization     128.0001055
 augmentation part     1024.0000020 magnetization     128.0001055

 Free energy of the ion-electron system (eV)
  ---------------------------------------------------
  alpha Z        PSCENC =      2574.33730679
  Ewald energy   TEWEN  =    -67378.53620541
  -Hartree energ DENC   =    -36045.54254935
  -exchange      EXHF   =         0.00000000
  -V(xc)+E(xc)   XCENC  =      4397.16328272
  PAW double counting   =    108725.82191982  -112342.66432617
  entropy T*S    EENTRO =        -0.06986006
  eigenvalues    EBANDS =    -12831.42175563
  atomic energy  EATOM  =    114309.28505226
  Solvation  Ediel_sol  =         0.00000000
  ---------------------------------------------------
  free energy    TOTEN  =      1408.37286497 eV

  energy without entropy =     1408.44272503  energy(sigma->0) =     1408.40779500


--------------------------------------------------------------------------------------------------------




--------------------------------------- Iteration      1(   3)  ---------------------------------------


     EDDAV:  cpu time  372.1327: real time  379.1700
       DOS:  cpu time    0.0017: real time    0.0017
    --------------------------------------------
      LOOP:  cpu time  372.1345: real time  379.1717

 eigenvalue-minimisations  : 32936
 total energy-change (2. order) :-0.1936033E+04  (-0.1738487E+04)
 number of electron    1024.0000020 magnetization     128.0001055
 augmentation part     1024.0000020 magnetization     128.0001055

 Free energy of the ion-electron system (eV)
  ---------------------------------------------------
  alpha Z        PSCENC =      2574.33730679
  Ewald energy   TEWEN  =    -67378.53620541
  -Hartree energ DENC   =    -36045.54254935
  -exchange      EXHF   =         0.00000000
  -V(xc)+E(xc)   XCENC  =      4397.16328272
  PAW double counting   =    108725.82191982  -112342.66432617
  entropy T*S    EENTRO =        -0.00000000
  eigenvalues    EBANDS =    -14767.52487916
  atomic energy  EATOM  =    114309.28505226
  Solvation  Ediel_sol  =         0.00000000
  ---------------------------------------------------
  free energy    TOTEN  =      -527.66039850 eV

  energy without entropy =     -527.66039850  energy(sigma->0) =     -527.66039850


--------------------------------------------------------------------------------------------------------




--------------------------------------- Iteration      1(   4)  ---------------------------------------


     EDDAV:  cpu time  426.6348: real time  434.8919
       DOS:  cpu time    0.0018: real time    0.0018
    --------------------------------------------
      LOOP:  cpu time  426.6366: real time  434.8937

 eigenvalue-minimisations  : 39392
 total energy-change (2. order) :-0.2612433E+03  (-0.2583934E+03)
 number of electron    1024.0000020 magnetization     128.0001055
 augmentation part     1024.0000020 magnetization     128.0001055

 Free energy of the ion-electron system (eV)
  ---------------------------------------------------
  alpha Z        PSCENC =      2574.33730679
  Ewald energy   TEWEN  =    -67378.53620541
  -Hartree energ DENC   =    -36045.54254935
  -exchange      EXHF   =         0.00000000
  -V(xc)+E(xc)   XCENC  =      4397.16328272
  PAW double counting   =    108725.82191982  -112342.66432617
  entropy T*S    EENTRO =        -0.00000000
  eigenvalues    EBANDS =    -15028.76814697
  atomic energy  EATOM  =    114309.28505226
  Solvation  Ediel_sol  =         0.00000000
  ---------------------------------------------------
  free energy    TOTEN  =      -788.90366631 eV

  energy without entropy =     -788.90366631  energy(sigma->0) =     -788.90366631


--------------------------------------------------------------------------------------------------------




--------------------------------------- Iteration      1(   5)  ---------------------------------------


     EDDAV:  cpu time  532.7314: real time  542.3946
       DOS:  cpu time    0.0022: real time    0.0022
    CHARGE:  cpu time    8.3675: real time    8.5206
    MIXING:  cpu time    0.0242: real time    0.0343
    --------------------------------------------
      LOOP:  cpu time  541.1254: real time  550.9517

 eigenvalue-minimisations  : 51304
 total energy-change (2. order) :-0.3150767E+02  (-0.3125630E+02)
 number of electron    1024.0000020 magnetization     128.0000816
 augmentation part      329.2014236 magnetization      84.1936944

 Broyden mixing:
  rms(total) = 0.31383E+00    rms(broyden)= 0.31357E+00
  rms(prec ) = 0.31753E+00
  weight for this iteration     100.00

 Free energy of the ion-electron system (eV)
  ---------------------------------------------------
  alpha Z        PSCENC =      2574.33730679
  Ewald energy   TEWEN  =    -67378.53620541
  -Hartree energ DENC   =    -36045.54254935
  -exchange      EXHF   =         0.00000000
  -V(xc)+E(xc)   XCENC  =      4397.16328272
  PAW double counting   =    108725.82191982  -112342.66432617
  entropy T*S    EENTRO =        -0.00000000
  eigenvalues    EBANDS =    -15060.27582074
  atomic energy  EATOM  =    114309.28505226
  Solvation  Ediel_sol  =         0.00000000
  ---------------------------------------------------
  free energy    TOTEN  =      -820.41134009 eV

  energy without entropy =     -820.41134009  energy(sigma->0) =     -820.41134009


--------------------------------------------------------------------------------------------------------




--------------------------------------- Iteration      1(   6)  ---------------------------------------


    POTLOK:  cpu time    0.6702: real time    0.6734
    SETDIJ:  cpu time    1.6729: real time    1.6874
     EDDAV:  cpu time  439.3137: real time  447.0569
       DOS:  cpu time    0.0018: real time    0.0018
    CHARGE:  cpu time    8.3437: real time    8.6199
    MIXING:  cpu time    0.0292: real time    0.0306
    --------------------------------------------
      LOOP:  cpu time  450.0314: real time  458.0700

 eigenvalue-minimisations  : 40544
 total energy-change (2. order) :-0.1438012E+01  (-0.1487918E+01)
 number of electron    1024.0000020 magnetization     128.0000682
 augmentation part      327.4887270 magnetization      84.3320674

 Broyden mixing:
  rms(total) = 0.12459E+00    rms(broyden)= 0.12435E+00
  rms(prec ) = 0.12539E+00
  weight for this iteration     100.00

 eigenvalues of (default mixing * dielectric matrix)
  average eigenvalue GAMMA=   0.6895
  0.6895

 Free energy of the ion-electron system (eV)
  ---------------------------------------------------
  alpha Z        PSCENC =      2574.33730679
  Ewald energy   TEWEN  =    -67378.53620541
  -Hartree energ DENC   =    -36036.94391550
  -exchange      EXHF   =         0.00000000
  -V(xc)+E(xc)   XCENC  =      4395.89065960
  PAW double counting   =    108539.48587604  -112150.59963918
  entropy T*S    EENTRO =        -0.00000000
  eigenvalues    EBANDS =    -15074.76848679
  atomic energy  EATOM  =    114309.28505226
  Solvation  Ediel_sol  =         0.00000000
  ---------------------------------------------------
  free energy    TOTEN  =      -821.84935219 eV

  energy without entropy =     -821.84935219  energy(sigma->0) =     -821.84935219


--------------------------------------------------------------------------------------------------------




--------------------------------------- Iteration      1(   7)  ---------------------------------------


    POTLOK:  cpu time    0.6755: real time    0.6852
    SETDIJ:  cpu time    1.6564: real time    1.6583
     EDDAV:  cpu time  498.8412: real time  507.0587
       DOS:  cpu time    0.0020: real time    0.0020
    CHARGE:  cpu time    8.3331: real time    8.5288
    MIXING:  cpu time    0.0286: real time    0.0304
    --------------------------------------------
      LOOP:  cpu time  509.5368: real time  517.9634

 eigenvalue-minimisations  : 47248
 total energy-change (2. order) :-0.7669970E-01  (-0.7837636E-01)
 number of electron    1024.0000020 magnetization     128.0000625
 augmentation part      327.1705901 magnetization      84.2686571

 Broyden mixing:
  rms(total) = 0.96742E-01    rms(broyden)= 0.96643E-01
  rms(prec ) = 0.98178E-01
  weight for this iteration     100.00

 eigenvalues of (default mixing * dielectric matrix)
  average eigenvalue GAMMA=   0.5915
  0.5915  0.5915

 Free energy of the ion-electron system (eV)
  ---------------------------------------------------
  alpha Z        PSCENC =      2574.33730679
  Ewald energy   TEWEN  =    -67378.53620541
  -Hartree energ DENC   =    -36039.62745761
  -exchange      EXHF   =         0.00000000
  -V(xc)+E(xc)   XCENC  =      4396.23330355
  PAW double counting   =    108583.03483758  -112195.59288777
  entropy T*S    EENTRO =        -0.00000000
  eigenvalues    EBANDS =    -15071.06000128
  atomic energy  EATOM  =    114309.28505226
  Solvation  Ediel_sol  =         0.00000000
  ---------------------------------------------------
  free energy    TOTEN  =      -821.92605189 eV

  energy without entropy =     -821.92605189  energy(sigma->0) =     -821.92605189


--------------------------------------------------------------------------------------------------------




--------------------------------------- Iteration      1(   8)  ---------------------------------------


    POTLOK:  cpu time    0.6965: real time    0.7207
    SETDIJ:  cpu time    1.6406: real time    1.6504
     EDDAV:  cpu time  473.0304: real time  481.4829
       DOS:  cpu time    0.0019: real time    0.0019
    CHARGE:  cpu time    8.3743: real time    8.5215
    MIXING:  cpu time    0.0297: real time    0.0311
    --------------------------------------------
      LOOP:  cpu time  483.7735: real time  492.4087

 eigenvalue-minimisations  : 44456
 total energy-change (2. order) :-0.2281965E-03  (-0.3010601E-02)
 number of electron    1024.0000020 magnetization     128.0000603
 augmentation part      327.1119986 magnetization      84.2580131

 Broyden mixing:
  rms(total) = 0.84694E-01    rms(broyden)= 0.84685E-01
  rms(prec ) = 0.86089E-01
  weight for this iteration     100.00

 eigenvalues of (default mixing * dielectric matrix)
  average eigenvalue GAMMA=   0.5171
  0.5948  0.5948  0.3615

 Free energy of the ion-electron system (eV)
  ---------------------------------------------------
  alpha Z        PSCENC =      2574.33730679
  Ewald energy   TEWEN  =    -67378.53620541
  -Hartree energ DENC   =    -36040.48779815
  -exchange      EXHF   =         0.00000000
  -V(xc)+E(xc)   XCENC  =      4396.37659920
  PAW double counting   =    108608.05362871  -112221.34539194
  entropy T*S    EENTRO =        -0.00000000
  eigenvalues    EBANDS =    -15069.60947154
  atomic energy  EATOM  =    114309.28505226
  Solvation  Ediel_sol  =         0.00000000
  ---------------------------------------------------
  free energy    TOTEN  =      -821.92628009 eV

  energy without entropy =     -821.92628009  energy(sigma->0) =     -821.92628009


--------------------------------------------------------------------------------------------------------




--------------------------------------- Iteration      1(   9)  ---------------------------------------


    POTLOK:  cpu time    0.6651: real time    0.6735
    SETDIJ:  cpu time    1.6631: real time    1.6802
     EDDAV:  cpu time  499.1343: real time  508.6756
       DOS:  cpu time    0.0022: real time    0.0024
    CHARGE:  cpu time    8.3712: real time    8.5472
    MIXING:  cpu time    0.0327: real time    0.0334
    --------------------------------------------
      LOOP:  cpu time  509.8686: real time  519.6123

 eigenvalue-minimisations  : 47376
 total energy-change (2. order) : 0.9033927E-03  (-0.1825949E-03)
 number of electron    1024.0000020 magnetization     128.0000601
 augmentation part      327.1200844 magnetization      84.2542858

 Broyden mixing:
  rms(total) = 0.78615E-01    rms(broyden)= 0.78615E-01
  rms(prec ) = 0.79898E-01
  weight for this iteration     100.00

 eigenvalues of (default mixing * dielectric matrix)
  average eigenvalue GAMMA=   0.4226
  0.5716  0.5716  0.2737  0.2737

 Free energy of the ion-electron system (eV)
  ---------------------------------------------------
  alpha Z        PSCENC =      2574.33730679
  Ewald energy   TEWEN  =    -67378.53620541
  -Hartree energ DENC   =    -36040.72813142
  -exchange      EXHF   =         0.00000000
  -V(xc)+E(xc)   XCENC  =      4396.43174294
  PAW double counting   =    108614.71807466  -112228.25493037
  entropy T*S    EENTRO =        -0.00000000
  eigenvalues    EBANDS =    -15069.17828614
  atomic energy  EATOM  =    114309.28505226
  Solvation  Ediel_sol  =         0.00000000
  ---------------------------------------------------
  free energy    TOTEN  =      -821.92537669 eV

  energy without entropy =     -821.92537669  energy(sigma->0) =     -821.92537669


--------------------------------------------------------------------------------------------------------




--------------------------------------- Iteration      1(  10)  ---------------------------------------


    POTLOK:  cpu time    0.6744: real time    0.6765
    SETDIJ:  cpu time    1.6783: real time    1.6860
     EDDAV:  cpu time  486.7828: real time  495.6485
       DOS:  cpu time    0.0021: real time    0.0021
    CHARGE:  cpu time    8.3086: real time    8.5294
    MIXING:  cpu time    0.0307: real time    0.0312
    --------------------------------------------
      LOOP:  cpu time  497.4768: real time  506.5735

 eigenvalue-minimisations  : 45856
 total energy-change (2. order) : 0.8317309E-04  (-0.1432515E-04)
 number of electron    1024.0000020 magnetization     128.0000503
 augmentation part      327.1246580 magnetization      84.2535202

 Broyden mixing:
  rms(total) = 0.77903E-01    rms(broyden)= 0.77903E-01
  rms(prec ) = 0.79160E-01
  weight for this iteration     100.00

 eigenvalues of (default mixing * dielectric matrix)
  average eigenvalue GAMMA=   0.6078
  0.9217  0.9217  0.4821  0.4821  0.2315

 Free energy of the ion-electron system (eV)
  ---------------------------------------------------
  alpha Z        PSCENC =      2574.33730679
  Ewald energy   TEWEN  =    -67378.53620541
  -Hartree energ DENC   =    -36040.75821131
  -exchange      EXHF   =         0.00000000
  -V(xc)+E(xc)   XCENC  =      4396.43676956
  PAW double counting   =    108615.25534578  -112228.81262872
  entropy T*S    EENTRO =        -0.00000000
  eigenvalues    EBANDS =    -15069.13272247
  atomic energy  EATOM  =    114309.28505226
  Solvation  Ediel_sol  =         0.00000000
  ---------------------------------------------------
  free energy    TOTEN  =      -821.92529352 eV

  energy without entropy =     -821.92529352  energy(sigma->0) =     -821.92529352


--------------------------------------------------------------------------------------------------------




--------------------------------------- Iteration      1(  11)  ---------------------------------------


    POTLOK:  cpu time    0.6832: real time    0.6882
    SETDIJ:  cpu time    1.6793: real time    1.7018
     EDDAV:  cpu time  482.2086: real time  490.1076
       DOS:  cpu time    0.0025: real time    0.0028
    CHARGE:  cpu time    8.3495: real time    8.5737
    MIXING:  cpu time    0.0346: real time    0.0372
    --------------------------------------------
      LOOP:  cpu time  492.9577: real time  501.1114

 eigenvalue-minimisations  : 45520
 total energy-change (2. order) : 0.2610080E-02  (-0.5233468E-04)
 number of electron    1024.0000020 magnetization     128.0000445
 augmentation part      327.1411730 magnetization      84.2514741

 Broyden mixing:
  rms(total) = 0.57349E-01    rms(broyden)= 0.57348E-01
  rms(prec ) = 0.58227E-01
  weight for this iteration     100.00

 eigenvalues of (default mixing * dielectric matrix)
  average eigenvalue GAMMA=   0.6175
  1.0155  1.0155  0.5302  0.5302  0.4107  0.2030

 Free energy of the ion-electron system (eV)
  ---------------------------------------------------
  alpha Z        PSCENC =      2574.33730679
  Ewald energy   TEWEN  =    -67378.53620541
  -Hartree energ DENC   =    -36041.92171813
  -exchange      EXHF   =         0.00000000
  -V(xc)+E(xc)   XCENC  =      4396.64212069
  PAW double counting   =    108643.61445197  -112258.20077662
  entropy T*S    EENTRO =        -0.00000000
  eigenvalues    EBANDS =    -15067.14291500
  atomic energy  EATOM  =    114309.28505226
  Solvation  Ediel_sol  =         0.00000000
  ---------------------------------------------------
  free energy    TOTEN  =      -821.92268344 eV

  energy without entropy =     -821.92268344  energy(sigma->0) =     -821.92268344


--------------------------------------------------------------------------------------------------------




--------------------------------------- Iteration      1(  12)  ---------------------------------------


    POTLOK:  cpu time    0.6581: real time    0.6691
    SETDIJ:  cpu time    1.6338: real time    1.6785
     EDDAV:  cpu time  446.5327: real time  455.0737
       DOS:  cpu time    0.0039: real time    0.0043
    CHARGE:  cpu time    8.3685: real time    8.5285
    MIXING:  cpu time    0.0283: real time    0.0303
    --------------------------------------------
      LOOP:  cpu time  457.2253: real time  465.9844

 eigenvalue-minimisations  : 41576
 total energy-change (2. order) : 0.8661232E-03  (-0.6457541E-04)
 number of electron    1024.0000020 magnetization     128.0000360
 augmentation part      327.1589806 magnetization      84.2522956

 Broyden mixing:
  rms(total) = 0.46163E-01    rms(broyden)= 0.46163E-01
  rms(prec ) = 0.46834E-01
  weight for this iteration     100.00

 eigenvalues of (default mixing * dielectric matrix)
  average eigenvalue GAMMA=   0.7033
  1.2676  1.2676  0.6166  0.6166  0.4650  0.4650  0.2250

 Free energy of the ion-electron system (eV)
  ---------------------------------------------------
  alpha Z        PSCENC =      2574.33730679
  Ewald energy   TEWEN  =    -67378.53620541
  -Hartree energ DENC   =    -36042.58448569
  -exchange      EXHF   =         0.00000000
  -V(xc)+E(xc)   XCENC  =      4396.74537410
  PAW double counting   =    108658.49629107  -112273.58326314
  entropy T*S    EENTRO =        -0.00000000
  eigenvalues    EBANDS =    -15066.08188729
  atomic energy  EATOM  =    114309.28505226
  Solvation  Ediel_sol  =         0.00000000
  ---------------------------------------------------
  free energy    TOTEN  =      -821.92181732 eV

  energy without entropy =     -821.92181732  energy(sigma->0) =     -821.92181732


--------------------------------------------------------------------------------------------------------




--------------------------------------- Iteration      1(  13)  ---------------------------------------


    POTLOK:  cpu time    0.6300: real time    0.6704
    SETDIJ:  cpu time    1.6183: real time    1.6737
     EDDAV:  cpu time  487.5964: real time  496.2859
       DOS:  cpu time    0.0019: real time    0.0019
    CHARGE:  cpu time    8.4684: real time    8.6178
    MIXING:  cpu time    0.0433: real time    0.0442
    --------------------------------------------
      LOOP:  cpu time  498.3584: real time  507.2938

 eigenvalue-minimisations  : 45576
 total energy-change (2. order) : 0.8052523E-03  (-0.2281819E-04)
 number of electron    1024.0000020 magnetization     128.0000309
 augmentation part      327.1678518 magnetization      84.2520536

 Broyden mixing:
  rms(total) = 0.32654E-01    rms(broyden)= 0.32654E-01
  rms(prec ) = 0.33103E-01
  weight for this iteration     100.00

 eigenvalues of (default mixing * dielectric matrix)
  average eigenvalue GAMMA=   0.7346
  1.4465  1.4465  0.6873  0.6873  0.4823  0.4823  0.4224  0.2222

 Free energy of the ion-electron system (eV)
  ---------------------------------------------------
  alpha Z        PSCENC =      2574.33730679
  Ewald energy   TEWEN  =    -67378.53620541
  -Hartree energ DENC   =    -36043.49300496
  -exchange      EXHF   =         0.00000000
  -V(xc)+E(xc)   XCENC  =      4396.87936640
  PAW double counting   =    108677.78973820  -112293.45828367
  entropy T*S    EENTRO =        -0.00000000
  eigenvalues    EBANDS =    -15064.72498167
  atomic energy  EATOM  =    114309.28505226
  Solvation  Ediel_sol  =         0.00000000
  ---------------------------------------------------
  free energy    TOTEN  =      -821.92101206 eV

  energy without entropy =     -821.92101206  energy(sigma->0) =     -821.92101206


--------------------------------------------------------------------------------------------------------




--------------------------------------- Iteration      1(  14)  ---------------------------------------


    POTLOK:  cpu time    0.6702: real time    0.6707
    SETDIJ:  cpu time    1.6924: real time    1.7299
     EDDAV:  cpu time  447.2016: real time  455.6051
       DOS:  cpu time    0.0018: real time    0.0018
    CHARGE:  cpu time    8.3634: real time    8.5396
    MIXING:  cpu time    0.0378: real time    0.0391
    --------------------------------------------
      LOOP:  cpu time  457.9672: real time  466.5862

 eigenvalue-minimisations  : 41672
 total energy-change (2. order) : 0.2496178E-03  (-0.2350007E-04)
 number of electron    1024.0000020 magnetization     128.0000235
 augmentation part      327.1767974 magnetization      84.2511683

 Broyden mixing:
  rms(total) = 0.25829E-01    rms(broyden)= 0.25829E-01
  rms(prec ) = 0.26157E-01
  weight for this iteration     100.00

 eigenvalues of (default mixing * dielectric matrix)
  average eigenvalue GAMMA=   0.8234
  1.7539  1.7539  0.8458  0.8458  0.5496  0.5496  0.4448  0.4448  0.2228

 Free energy of the ion-electron system (eV)
  ---------------------------------------------------
  alpha Z        PSCENC =      2574.33730679
  Ewald energy   TEWEN  =    -67378.53620541
  -Hartree energ DENC   =    -36043.95795247
  -exchange      EXHF   =         0.00000000
  -V(xc)+E(xc)   XCENC  =      4396.94413727
  PAW double counting   =    108687.26052629  -112303.19230766
  entropy T*S    EENTRO =        -0.00000000
  eigenvalues    EBANDS =    -15064.06131951
  atomic energy  EATOM  =    114309.28505226
  Solvation  Ediel_sol  =         0.00000000
  ---------------------------------------------------
  free energy    TOTEN  =      -821.92076245 eV

  energy without entropy =     -821.92076245  energy(sigma->0) =     -821.92076245


--------------------------------------------------------------------------------------------------------




--------------------------------------- Iteration      1(  15)  ---------------------------------------


    POTLOK:  cpu time    0.6702: real time    0.6720
    SETDIJ:  cpu time    1.6806: real time    1.6834
     EDDAV:  cpu time  433.4865: real time  441.2300
       DOS:  cpu time    0.0027: real time    0.0038
    CHARGE:  cpu time    8.3539: real time    8.5614
    MIXING:  cpu time    0.0289: real time    0.0319
    --------------------------------------------
      LOOP:  cpu time  444.2229: real time  452.1824

 eigenvalue-minimisations  : 39064
 total energy-change (2. order) : 0.2296898E-03  (-0.7383599E-05)
 number of electron    1024.0000020 magnetization     128.0000119
 augmentation part      327.1811225 magnetization      84.2512044

 Broyden mixing:
  rms(total) = 0.17382E-01    rms(broyden)= 0.17382E-01
  rms(prec ) = 0.17589E-01
  weight for this iteration     100.00

 eigenvalues of (default mixing * dielectric matrix)
  average eigenvalue GAMMA=   0.9645
  2.3769  2.3769  0.9887  0.9887  0.6351  0.6351  0.2227  0.4954  0.4954  0.4307

 Free energy of the ion-electron system (eV)
  ---------------------------------------------------
  alpha Z        PSCENC =      2574.33730679
  Ewald energy   TEWEN  =    -67378.53620541
  -Hartree energ DENC   =    -36044.53411230
  -exchange      EXHF   =         0.00000000
  -V(xc)+E(xc)   XCENC  =      4397.02336415
  PAW double counting   =    108699.06085178  -112315.27963319
  entropy T*S    EENTRO =        -0.00000000
  eigenvalues    EBANDS =    -15063.27715683
  atomic energy  EATOM  =    114309.28505226
  Solvation  Ediel_sol  =         0.00000000
  ---------------------------------------------------
  free energy    TOTEN  =      -821.92053276 eV

  energy without entropy =     -821.92053276  energy(sigma->0) =     -821.92053276


--------------------------------------------------------------------------------------------------------




--------------------------------------- Iteration      1(  16)  ---------------------------------------


    POTLOK:  cpu time    0.6671: real time    0.6722
    SETDIJ:  cpu time    1.7026: real time    1.7053
     EDDAV:  cpu time  467.0708: real time  475.5524
       DOS:  cpu time    0.0023: real time    0.0024
    CHARGE:  cpu time    8.4443: real time    8.6280
    MIXING:  cpu time    0.0290: real time    0.0429
    --------------------------------------------
      LOOP:  cpu time  477.9161: real time  486.6032

 eigenvalue-minimisations  : 43256
 total energy-change (2. order) : 0.1576995E-03  (-0.1936094E-04)
 number of electron    1024.0000020 magnetization     128.0000073
 augmentation part      327.1899951 magnetization      84.2510390

 Broyden mixing:
  rms(total) = 0.63609E-02    rms(broyden)= 0.63601E-02
  rms(prec ) = 0.64070E-02
  weight for this iteration     100.00

 eigenvalues of (default mixing * dielectric matrix)
  average eigenvalue GAMMA=   0.9859
  2.5258  2.5258  1.0787  1.0787  0.7180  0.7180  0.2227  0.5339  0.5339  0.4820
  0.4278

 Free energy of the ion-electron system (eV)
  ---------------------------------------------------
  alpha Z        PSCENC =      2574.33730679
  Ewald energy   TEWEN  =    -67378.53620541
  -Hartree energ DENC   =    -36045.31654232
  -exchange      EXHF   =         0.00000000
  -V(xc)+E(xc)   XCENC  =      4397.12510358
  PAW double counting   =    108714.72631088  -112331.27935476
  entropy T*S    EENTRO =        -0.00000000
  eigenvalues    EBANDS =    -15062.26204608
  atomic energy  EATOM  =    114309.28505226
  Solvation  Ediel_sol  =         0.00000000
  ---------------------------------------------------
  free energy    TOTEN  =      -821.92037506 eV

  energy without entropy =     -821.92037506  energy(sigma->0) =     -821.92037506


--------------------------------------------------------------------------------------------------------




--------------------------------------- Iteration      1(  17)  ---------------------------------------


    POTLOK:  cpu time    0.6688: real time    0.6784
    SETDIJ:  cpu time    1.6503: real time    1.6833
     EDDAV:  cpu time  470.4718: real time  479.4758
       DOS:  cpu time    0.0023: real time    0.0026
    CHARGE:  cpu time    8.3885: real time    8.5914
    MIXING:  cpu time    0.0397: real time    0.0417
    --------------------------------------------
      LOOP:  cpu time  481.2214: real time  490.4732

 eigenvalue-minimisations  : 44304
 total energy-change (2. order) : 0.1728513E-04  (-0.1104056E-04)
 number of electron    1024.0000020 magnetization     128.0000063
 augmentation part      327.1954096 magnetization      84.2512149

 Broyden mixing:
  rms(total) = 0.26303E-02    rms(broyden)= 0.26284E-02
  rms(prec ) = 0.26368E-02
  weight for this iteration     100.00

 eigenvalues of (default mixing * dielectric matrix)
  average eigenvalue GAMMA=   0.9575
  2.5791  2.5791  1.1210  1.1210  0.7575  0.7575  0.5305  0.5305  0.2227  0.4672
  0.4672  0.3566

 Free energy of the ion-electron system (eV)
  ---------------------------------------------------
  alpha Z        PSCENC =      2574.33730679
  Ewald energy   TEWEN  =    -67378.53620541
  -Hartree energ DENC   =    -36045.60620870
  -exchange      EXHF   =         0.00000000
  -V(xc)+E(xc)   XCENC  =      4397.16705107
  PAW double counting   =    108721.50073113  -112338.22660947
  entropy T*S    EENTRO =        -0.00000000
  eigenvalues    EBANDS =    -15061.84147544
  atomic energy  EATOM  =    114309.28505226
  Solvation  Ediel_sol  =         0.00000000
  ---------------------------------------------------
  free energy    TOTEN  =      -821.92035777 eV

  energy without entropy =     -821.92035777  energy(sigma->0) =     -821.92035777


--------------------------------------------------------------------------------------------------------




--------------------------------------- Iteration      1(  18)  ---------------------------------------


    POTLOK:  cpu time    0.6589: real time    0.6772
    SETDIJ:  cpu time    1.6365: real time    1.6727
     EDDAV:  cpu time  401.8720: real time  409.7273
       DOS:  cpu time    0.0021: real time    0.0022
    CHARGE:  cpu time    8.5000: real time    8.6163
    MIXING:  cpu time    0.0326: real time    0.0350
    --------------------------------------------
      LOOP:  cpu time  412.7022: real time  420.7308

 eigenvalue-minimisations  : 36208
 total energy-change (2. order) :-0.1298715E-05  (-0.2242015E-05)
 number of electron    1024.0000020 magnetization     128.0000056
 augmentation part      327.1981796 magnetization      84.2511652

 Broyden mixing:
  rms(total) = 0.23218E-02    rms(broyden)= 0.23204E-02
  rms(prec ) = 0.23392E-02
  weight for this iteration     100.00

 eigenvalues of (default mixing * dielectric matrix)
  average eigenvalue GAMMA=   0.9268
  2.6665  2.6665  1.1171  1.1171  0.7569  0.7569  0.2227  0.5089  0.5089  0.4607
  0.4229  0.4217  0.4217

 Free energy of the ion-electron system (eV)
  ---------------------------------------------------
  alpha Z        PSCENC =      2574.33730679
  Ewald energy   TEWEN  =    -67378.53620541
  -Hartree energ DENC   =    -36045.63365985
  -exchange      EXHF   =         0.00000000
  -V(xc)+E(xc)   XCENC  =      4397.17053652
  PAW double counting   =    108722.33959412  -112339.07970672
  entropy T*S    EENTRO =        -0.00000000
  eigenvalues    EBANDS =    -15061.80327678
  atomic energy  EATOM  =    114309.28505226
  Solvation  Ediel_sol  =         0.00000000
  ---------------------------------------------------
  free energy    TOTEN  =      -821.92035907 eV

  energy without entropy =     -821.92035907  energy(sigma->0) =     -821.92035907


--------------------------------------------------------------------------------------------------------




--------------------------------------- Iteration      1(  19)  ---------------------------------------


    POTLOK:  cpu time    0.6627: real time    0.6704
    SETDIJ:  cpu time    1.6618: real time    1.6862
     EDDAV:  cpu time  265.9181: real time  271.2952
       DOS:  cpu time    0.0018: real time    0.0018
    --------------------------------------------
      LOOP:  cpu time  268.2443: real time  273.6535

 eigenvalue-minimisations  : 20792
 total energy-change (2. order) :-0.2698653E-06  (-0.5848970E-07)
 number of electron    1024.0000020 magnetization     128.0000056
 augmentation part      327.1981796 magnetization      84.2511652

 Free energy of the ion-electron system (eV)
  ---------------------------------------------------
  alpha Z        PSCENC =      2574.33730679
  Ewald energy   TEWEN  =    -67378.53620541
  -Hartree energ DENC   =    -36045.64014025
  -exchange      EXHF   =         0.00000000
  -V(xc)+E(xc)   XCENC  =      4397.17004355
  PAW double counting   =    108722.55409702  -112339.29050302
  entropy T*S    EENTRO =        -0.00000000
  eigenvalues    EBANDS =    -15061.80001029
  atomic energy  EATOM  =    114309.28505226
  Solvation  Ediel_sol  =         0.00000000
  ---------------------------------------------------
  free energy    TOTEN  =      -821.92035934 eV

  energy without entropy =     -821.92035934  energy(sigma->0) =     -821.92035934


--------------------------------------------------------------------------------------------------------




 average (electrostatic) potential at core
  the test charge radii are     0.7079  0.9500  0.9698  0.7215
  (the norm of the test charge is              1.0000)
       1 -59.3057       2 -59.3056       3 -59.3055       4 -59.3054       5 -59.3054
       6 -59.3055       7 -59.3057       8 -59.3056       9 -59.3042      10 -59.3056
      11 -59.3069      12 -59.3057      13 -59.3048      14 -59.3056      15 -59.3063
      16 -59.3056      17 -59.3056      18 -59.3056      19 -59.3055      20 -59.3057
      21 -59.3055      22 -59.3055      23 -59.3054      24 -59.3055      25 -59.3053
[...]
   -.633E-04 0.426E-02 0.106E-03   -.720E-05 -.433E-02 0.119E-05   0.208E-04 0.140E-03 -.165E-03   0.525E-04 -.177E-04 -.800E-05
   0.128E-03 -.126E-01 -.830E-05   -.119E-04 0.127E-01 -.633E-05   -.515E-04 -.220E-03 0.994E-04   -.742E-04 0.873E-04 -.118E-04
   -.415E-04 -.397E-02 -.105E-03   0.624E-05 0.409E-02 -.935E-06   0.553E-04 -.151E-03 0.920E-04   -.239E-05 -.201E-04 0.547E-04
   -.214E-02 0.305E+00 -.109E-02   0.257E-02 -.335E+00 -.488E-03   -.575E-03 0.365E-01 0.938E-03   0.986E-05 -.311E-03 -.167E-03
   -.175E-05 0.896E-02 -.513E-04   -.280E-04 -.948E-02 -.184E-05   0.781E-04 0.649E-03 0.339E-04   -.325E-04 0.687E-04 -.293E-05
   0.146E-03 -.396E-01 0.805E-04   -.706E-04 0.449E-01 0.131E-04   0.409E-04 -.794E-02 0.553E-03   -.541E-04 -.105E-05 -.759E-04
   -.660E-04 -.730E-02 0.891E-04   0.178E-04 0.776E-02 0.119E-05   0.551E-04 -.628E-03 0.294E-04   0.122E-04 -.400E-04 -.741E-04
   -.294E-01 -.208E-01 -.356E-01   0.306E-01 0.211E-01 0.377E-01   -.140E-02 -.751E-04 -.315E-02   -.707E-04 -.211E-04 0.101E-03
   0.523E-02 -.399E-03 -.203E-02   -.535E-02 0.498E-03 0.222E-02   0.249E-03 -.281E-04 -.227E-03   -.612E-04 -.671E-04 -.302E-04
   0.294E-01 -.206E-01 0.356E-01   -.307E-01 0.209E-01 -.379E-01   0.166E-02 -.681E-03 0.335E-02   0.699E-04 -.722E-04 0.275E-04
   -.528E-02 -.512E-03 0.199E-02   0.535E-02 0.461E-03 -.222E-02   -.102E-03 0.994E-04 0.246E-03   0.168E-05 -.256E-04 0.501E-04
   -.163E-01 -.102E-01 0.251E-01   0.178E-01 0.103E-01 -.272E-01   -.201E-02 -.275E-03 0.296E-02   -.253E-04 -.822E-04 0.592E-04
   0.411E-02 -.446E-03 0.191E-02   -.422E-02 0.348E-03 -.207E-02   0.252E-03 0.516E-04 0.288E-03   -.817E-04 0.488E-04 -.428E-04
   0.167E-01 -.101E-01 -.253E-01   -.178E-01 0.102E-01 0.273E-01   0.165E-02 0.247E-03 -.312E-02   -.292E-04 -.548E-04 0.115E-03
   -.406E-02 -.305E-03 -.192E-02   0.422E-02 0.316E-03 0.207E-02   -.834E-04 -.103E-03 -.281E-03   -.942E-04 0.709E-04 0.541E-04
   0.824E-04 0.158E-01 0.189E-04   -.180E-04 -.157E-01 0.132E-04   0.642E-04 -.309E-05 -.131E-03   -.120E-03 -.533E-04 0.853E-04
   -.834E-04 0.412E-02 -.113E-03   0.720E-05 -.433E-02 0.119E-05   0.261E-04 0.105E-03 0.200E-03   0.552E-04 0.146E-03 -.238E-04
   0.757E-04 -.126E-01 0.235E-04   0.119E-04 0.127E-01 -.633E-05   -.741E-04 -.203E-03 -.112E-03   -.290E-04 0.173E-04 0.195E-04
   -.731E-04 -.397E-02 0.819E-04   -.624E-05 0.409E-02 -.935E-06   0.388E-04 -.138E-03 -.106E-03   0.553E-04 -.327E-04 -.207E-04
   0.252E-02 0.305E+00 0.207E-02   -.257E-02 -.335E+00 -.488E-03   -.150E-03 0.364E-01 -.790E-03   -.323E-04 -.161E-03 0.111E-04
   -.499E-04 0.903E-02 0.875E-04   0.280E-04 -.948E-02 -.184E-05   0.722E-04 0.664E-03 -.340E-04   -.370E-04 -.918E-05 -.302E-04
   0.202E-04 -.395E-01 -.733E-04   0.706E-04 0.449E-01 0.131E-04   0.946E-05 -.792E-02 -.557E-03   -.460E-04 -.727E-04 0.500E-04
   -.154E-04 -.738E-02 -.281E-04   -.178E-04 0.776E-02 0.119E-05   0.594E-04 -.676E-03 0.146E-04   -.490E-05 0.750E-04 -.214E-04
   0.293E-01 -.208E-01 -.355E-01   -.306E-01 0.211E-01 0.377E-01   0.166E-02 -.730E-03 -.331E-02   0.283E-04 0.434E-04 -.332E-04
   -.536E-02 -.530E-03 -.213E-02   0.535E-02 0.498E-03 0.222E-02   -.150E-03 0.127E-03 -.277E-03   0.124E-03 -.723E-04 0.109E-03
   -.296E-01 -.207E-01 0.356E-01   0.307E-01 0.209E-01 -.379E-01   -.144E-02 -.332E-04 0.313E-02   -.205E-04 -.190E-04 0.135E-03
   0.518E-02 -.367E-03 0.216E-02   -.535E-02 0.461E-03 -.222E-02   0.216E-03 -.780E-04 0.282E-03   0.178E-04 -.190E-04 -.126E-03
   0.167E-01 -.103E-01 0.251E-01   -.178E-01 0.103E-01 -.272E-01   0.166E-02 0.216E-03 0.307E-02   -.985E-04 0.181E-04 -.696E-04
   -.415E-02 -.243E-03 0.193E-02   0.422E-02 0.348E-03 -.207E-02   -.141E-03 -.508E-04 0.248E-03   0.399E-04 -.623E-04 -.291E-04
   -.164E-01 -.102E-01 -.251E-01   0.178E-01 0.102E-01 0.273E-01   -.202E-02 -.313E-03 -.293E-02   -.359E-04 0.535E-04 -.164E-03
   0.404E-02 -.378E-03 -.187E-02   -.422E-02 0.316E-03 0.207E-02   0.199E-03 0.684E-04 -.299E-03   0.328E-04 0.750E-05 0.101E-04
 -----------------------------------------------------------------------------------------------
   -.486E-02 -.306E-01 -.682E-04   -.411E-12 0.163E-12 -.241E-13   0.575E-02 0.308E-01 0.420E-03   -.914E-03 -.162E-03 -.368E-03
 
 
 POSITION                                       TOTAL-FORCE (eV/Angst)
 -----------------------------------------------------------------------------------
      1.92810      2.81256      5.27212         0.001880     -0.013414     -0.000138
      9.64051      2.80256      5.27212        -0.000012     -0.000037     -0.000119
      1.92810      8.40768      5.27212         0.000032      0.002651     -0.000118
      9.64051      8.40768      5.27212        -0.000007      0.000040     -0.000114
      1.92810      2.80256     10.91064         0.000044      0.000138     -0.000112
      9.64051      2.80256     10.91064        -0.000009     -0.000011     -0.000113
      1.92810      8.40768     10.91064        -0.000017     -0.000067     -0.000111
      9.64051      8.40768     10.91064        -0.000014      0.000013     -0.000113
      1.92810      0.00000      3.18565         0.000018      0.000431      0.001590
      9.64051      0.00000      3.18565        -0.000003      0.000001      0.000130
      1.92810      5.60512      3.18565         0.000016      0.000433     -0.001382
      9.64051      5.60512      3.18565        -0.000009     -0.000004      0.000101
      1.92810      0.00000      8.82416        -0.000021      0.000021     -0.000644
      9.64051      0.00000      8.82416        -0.000000     -0.000003      0.000110
      1.92810      5.60512      8.82416        -0.000020      0.000021      0.000873
      9.64051      5.60512      8.82416        -0.000000     -0.000006      0.000123
      5.78431      2.80256      0.36639        -0.000005     -0.000025      0.000152
     13.49672      2.80256      0.36639        -0.000009     -0.000027      0.000073
      5.78431      8.40768      0.36639         0.000005      0.000034      0.000099
     13.49672      8.40768      0.36639         0.000000      0.000030      0.000138
      5.78431      2.80256      6.00490         0.000053     -0.000189     -0.000008
     13.49672      2.80256      6.00490         0.000074     -0.000192      0.000237
      5.78431      8.40768      6.00490        -0.000029      0.000165      0.000152
     13.49672      8.40768      6.00490        -0.000029      0.000167      0.000080
      5.78431      0.00000      2.45287        -0.000110      0.000002     -0.000100
     13.49672      0.00000      2.45287         0.000122     -0.000030     -0.000070
      5.78431      5.60512      2.45287         0.000114     -0.000036     -0.000159
     13.49672      5.60512      2.45287        -0.000103      0.000004     -0.000125
      5.78431      0.00000      8.09138        -0.000130     -0.000032     -0.000191
     13.49672      0.00000      8.09138         0.000094      0.000006     -0.000167
      5.78431      5.60512      8.09138         0.000092      0.000006     -0.000066
     13.49672      5.60512      8.09138        -0.000126     -0.000035     -0.000037
      4.15299      4.20384      4.22889         0.003013      0.000346     -0.001316
     11.86540      4.20384      4.22889        -0.000170     -0.000064     -0.000063
      4.15299      9.80896      4.22889        -0.000667      0.000508      0.000340
     11.86540      9.80896      4.22889        -0.000024      0.000082      0.000048
      4.15299      4.20384      9.86740        -0.000130     -0.000124      0.000095
     11.86540      4.20384      9.86740        -0.000071     -0.000046     -0.000022
      4.15299      9.80896      9.86740        -0.000029      0.000115     -0.000094
     11.86540      9.80896      9.86740        -0.000090      0.000042      0.000010
      3.55942      1.40128      1.40963         0.000272     -0.000132      0.000106
     11.27183      1.40128      1.40963         0.000056     -0.000041     -0.000016
      3.55942      7.00640      1.40963         0.000029      0.000104     -0.000075
     11.27183      7.00640      1.40963         0.000074      0.000034      0.000009
      3.55942      1.40128      7.04814        -0.002487      0.000254     -0.002325
     11.27183      1.40128      7.04814         0.000119     -0.000068     -0.000030
      3.55942      7.00640      7.04814         0.000953      0.000677      0.000643
     11.27183      7.00640      7.04814         0.000019      0.000069      0.000049
      0.29678      4.20384      1.40963         0.000122     -0.000143     -0.000105
      8.00920      4.20384      1.40963        -0.000098     -0.000043      0.000016
      0.29678      9.80896      1.40963        -0.000127      0.000106      0.000083
      8.00920      9.80896      1.40963        -0.000082      0.000031     -0.000011
      0.29678      4.20384      7.04814        -0.002657      0.000239      0.002337
      8.00920      4.20384      7.04814        -0.000036     -0.000061      0.000035
      0.29678      9.80896      7.04814         0.000796      0.000683     -0.000637
      8.00920      9.80896      7.04814        -0.000137      0.000071     -0.000044
      7.41563      1.40128      4.22889        -0.000018     -0.000070      0.000057
     15.12804      1.40128      4.22889         0.003146      0.000363      0.001308
      7.41563      7.00640      4.22889         0.000129      0.000072     -0.000054
     15.12804      7.00640      4.22889        -0.000519      0.000505     -0.000348
      7.41563      1.40128      9.86740         0.000078     -0.000043      0.000024
     15.12804      1.40128      9.86740         0.000031     -0.000122     -0.000097
      7.41563      7.00640      9.86740         0.000063      0.000044     -0.000011
     15.12804      7.00640      9.86740         0.000124      0.000112      0.000093
      7.49749      4.20384      4.22889         0.000013     -0.000193     -0.000122
     15.20990      4.20384      4.22889        -0.006162      0.000458     -0.002635
      7.49749      9.80896      4.22889        -0.000076      0.000171      0.000100
     15.20990      9.80896      4.22889         0.001117      0.001050      0.000591
      7.49749      4.20384      9.86740         0.000016     -0.000046      0.000023
     15.20990      4.20384      9.86740         0.000024     -0.000297      0.000232
      7.49749      9.80896      9.86740        -0.000038      0.000049     -0.000009
     15.20990      9.80896      9.86740        -0.000002      0.000311     -0.000256
      0.21492      1.40128      1.40963        -0.000237     -0.000282      0.000309
      7.92733      1.40128      1.40963        -0.000031     -0.000046      0.000023
      0.21492      7.00640      1.40963         0.000106      0.000343     -0.000308
      7.92733      7.00640      1.40963         0.000016      0.000053     -0.000016
      0.21492      1.40128      7.04814         0.004682     -0.000112     -0.003708
      7.92733      1.40128      7.04814        -0.000075     -0.000168     -0.000109
      0.21492      7.00640      7.04814        -0.001630      0.001232      0.000973
      7.92733      7.00640      7.04814         0.000057      0.000152      0.000078
      3.64128      4.20384      1.40963        -0.000262     -0.000295     -0.000305
     11.35369      4.20384      1.40963        -0.000050     -0.000045     -0.000024
      3.64128      9.80896      1.40963         0.000095      0.000343      0.000317
     11.35369      9.80896      1.40963         0.000006      0.000050      0.000018
      3.64128      4.20384      7.04814         0.004702     -0.000158      0.003719
     11.35369      4.20384      7.04814        -0.000089     -0.000164      0.000110
      3.64128      9.80896      7.04814        -0.001641      0.001231     -0.000966
     11.35369      9.80896      7.04814         0.000044      0.000151     -0.000079
      4.07113      1.40128      4.22889        -0.006120      0.000495      0.002623
     11.78354      1.40128      4.22889         0.000037     -0.000199      0.000121
      4.07113      7.00640      4.22889         0.001147      0.001055     -0.000603
     11.78354      7.00640      4.22889        -0.000055      0.000172     -0.000105
      4.07113      1.40128      9.86740         0.000039     -0.000290     -0.000229
     11.78354      1.40128      9.86740         0.000028     -0.000044     -0.000016
      4.07113      7.00640      9.86740         0.000004      0.000312      0.000254
     11.78354      7.00640      9.86740        -0.000032      0.000050      0.000011
      1.92810      0.00000      5.65047         0.000230     -0.003412      0.000850
      9.64051      0.00000      5.65047         0.000027      0.000000      0.000017
      1.92810      5.60512      5.65047         0.000230     -0.003310     -0.000812
      9.64051      5.60512      5.65047         0.000026      0.000001      0.000004
      1.92810      0.00000      0.01196        -0.000039      0.000142      0.000098
      9.64051      0.00000      0.01196         0.000018      0.000001      0.000007
      1.92810      5.60512      0.01196        -0.000040      0.000147     -0.000078
      9.64051      5.60512      0.01196         0.000015     -0.000003      0.000006
      1.92810      2.80256      2.80730         0.000261      0.002130      0.000008
      9.64051      2.80256      2.80730         0.000034      0.000039     -0.000015
      1.92810      8.40768      2.80730        -0.000004     -0.000841     -0.000010
      9.64051      8.40768      2.80730         0.000013     -0.000044     -0.000014
      1.92810      2.80256      8.44581         0.000079      0.001408     -0.000005
      9.64051      2.80256      8.44581         0.000007      0.000053     -0.000006
      1.92810      8.40768      8.44581        -0.000170     -0.001171     -0.000015
      9.64051      8.40768      8.44581         0.000020     -0.000050     -0.000007
      5.78431      0.00000     11.26507         0.000097     -0.000011     -0.000012
     13.49672      0.00000     11.26507        -0.000076      0.000014      0.000018
      5.78431      5.60512     11.26507        -0.000075      0.000011     -0.000036
     13.49672      5.60512     11.26507         0.000093     -0.000005     -0.000009
      5.78431      0.00000      5.62655         0.000520      0.000042      0.000024
     13.49672      0.00000      5.62655        -0.000471      0.000003     -0.000036
      5.78431      5.60512      5.62655        -0.000475      0.000008      0.000017
     13.49672      5.60512      5.62655         0.000522      0.000049     -0.000048
      5.78431      2.80256      2.83122         0.000097      0.000263     -0.000027
     13.49672      2.80256      2.83122         0.000094      0.000264      0.000039
      5.78431      8.40768      2.83122        -0.000037     -0.000221      0.000027
     13.49672      8.40768      2.83122        -0.000034     -0.000230     -0.000012
      5.78431      2.80256      8.46973        -0.000069      0.000204     -0.000050
     13.49672      2.80256      8.46973        -0.000072      0.000202      0.000075
      5.78431      8.40768      8.46973         0.000070     -0.000214      0.000064
     13.49672      8.40768      8.46973         0.000072     -0.000216     -0.000039
      0.00000      2.80256      0.00000        -0.000016     -0.000024      0.000003
      7.71241      2.80256      0.00000         0.000003      0.000055     -0.000065
      0.00000      8.40768      0.00000        -0.000009     -0.000094      0.000073
      7.71241      8.40768      0.00000         0.000018     -0.000051      0.000041
      0.00000      2.80256      5.63851        -0.000130      0.005938     -0.000809
      7.71241      2.80256      5.63851         0.000016      0.000202     -0.000022
      0.00000      8.40768      5.63851         0.000063     -0.002597      0.000570
      7.71241      8.40768      5.63851         0.000019     -0.000205      0.000046
      0.00000      0.00000      2.81926        -0.000320      0.000139     -0.000962
      7.71241      0.00000      2.81926         0.000068      0.000003     -0.000074
      0.00000      5.60512      2.81926         0.000392     -0.000437      0.001148
      7.71241      5.60512      2.81926        -0.000027      0.000022      0.000072
      0.00000      0.00000      8.45777        -0.000593     -0.000260      0.000958
      7.71241      0.00000      8.45777         0.000062      0.000002      0.000090
      0.00000      5.60512      8.45777         0.000464      0.000260     -0.000997
      7.71241      5.60512      8.45777        -0.000020     -0.000021     -0.000081
      3.85621      2.80256      0.00000         0.000009     -0.000005     -0.000013
     11.56862      2.80256      0.00000         0.000005      0.000039      0.000065
      3.85621      8.40768      0.00000        -0.000015     -0.000087     -0.000075
     11.56862      8.40768      0.00000         0.000015     -0.000050     -0.000045
      3.85621      2.80256      5.63851        -0.000233      0.005920      0.000807
     11.56862      2.80256      5.63851         0.000013      0.000207      0.000022
      3.85621      8.40768      5.63851         0.000054     -0.002588     -0.000567
     11.56862      8.40768      5.63851         0.000021     -0.000217     -0.000034
      3.85621      0.00000      2.81926         0.000391     -0.000453     -0.001139
     11.56862      0.00000      2.81926        -0.000040      0.000022     -0.000084
      3.85621      5.60512      2.81926        -0.000327      0.000145      0.000953
     11.56862      5.60512      2.81926         0.000061     -0.000003      0.000094
      3.85621      0.00000      8.45777         0.000465      0.000248      0.000981
     11.56862      0.00000      8.45777        -0.000032     -0.000008      0.000076
      3.85621      5.60512      8.45777        -0.000594     -0.000268     -0.000952
     11.56862      5.60512      8.45777         0.000048      0.000014     -0.000085
 -----------------------------------------------------------------------------------
    total drift:                               -0.000019      0.000043     -0.000016


--------------------------------------------------------------------------------------------------------



  FREE ENERGIE OF THE ION-ELECTRON SYSTEM (eV)
  ---------------------------------------------------
  free  energy   TOTEN  =      -821.92035934 eV

  energy  without entropy=     -821.92035934  energy(sigma->0) =     -821.92035934
 


--------------------------------------------------------------------------------------------------------


    POTLOK:  cpu time    2.3313: real time    2.3808


--------------------------------------------------------------------------------------------------------


     LOOP+:  cpu time 9085.5151: real time 9250.6122
    4ORBIT:  cpu time    0.0000: real time    0.0000

 total amount of memory used by VASP MPI-rank0   984794. kBytes
=======================================================================

   base      :      30000. kBytes
   nonl-proj :     101936. kBytes
   fftplans  :      64934. kBytes
   grid      :      55554. kBytes
   one-center:        839. kBytes
   wavefun   :     731531. kBytes
 
  
  
 General timing and accounting informations for this job:
 ========================================================
  
                  Total CPU time used (sec):     9229.666
                            User time (sec):     9170.853
                          System time (sec):       58.813
                         Elapsed time (sec):     9399.243
  
                   Maximum memory used (kb):     1174100.
                   Average memory used (kb):           0.
  
                          Minor page faults:      1112952
                          Major page faults:           22
                 Voluntary context switches:        57154
