<?xml version="1.0" encoding="ISO-8859-1"?>
<modeling>
 <generator>
  <i name="program" type="string">vasp </i>
  <i name="version" type="string">5.4.4.18Apr17-6-g9f103f2a35  </i>
  <i name="subversion" type="string">(build Oct 25 2017 14:42:18) complex            parallel </i>
  <i name="platform" type="string">LinuxIFC </i>
  <i name="date" type="string">2021 06 15 </i>
  <i name="time" type="string">04:26:57 </i>
 </generator>
 <incar>
  <i type="string" name="PREC">accurate</i>
  <i type="string" name="ALGO"> normal</i>
  <i type="logical" name="ADDGRID"> T  </i>
  <i type="int" name="ISPIN">     2</i>
  <i type="int" name="ICHARG">     1</i>
  <i type="int" name="NELM">   200</i>
  <i type="int" name="NELMIN">     8</i>
  <i name="EDIFF">      0.00000100</i>
  <i type="int" name="ISYM">     2</i>
  <i name="ENCUT">    650.00000000</i>
  <v name="MAGMOM">      0.60000000      0.60000000      0.60000000      0.60000000      0.60000000      0.60000000      0.60000000      0.60000000      0.60000000      0.60000000      0.60000000      0.60000000      0.60000000      0.60000000      0.60000000      0.60000000      0.60000000      0.60000000      0.60000000      0.60000000
      0.60000000      0.60000000      0.60000000      0.60000000      0.60000000      0.60000000      0.60000000      0.60000000      0.60000000      0.60000000      0.60000000      0.60000000      0.60000000      0.60000000      0.60000000      0.60000000      0.60000000      0.60000000      0.60000000      0.60000000
      0.60000000      0.60000000      0.60000000      0.60000000      0.60000000      0.60000000      0.60000000      0.60000000      0.60000000      0.60000000      0.60000000      0.60000000      0.60000000      0.60000000      0.60000000      0.60000000      0.60000000      0.60000000      0.60000000      0.60000000
      0.60000000      0.60000000      0.60000000      0.60000000      5.00000000      5.00000000      5.00000000      5.00000000      5.00000000      5.00000000      5.00000000      5.00000000      5.00000000      5.00000000      5.00000000      5.00000000      5.00000000      5.00000000      5.00000000      5.00000000
      5.00000000      5.00000000      5.00000000      5.00000000      5.00000000      5.00000000      5.00000000      5.00000000      5.00000000      5.00000000      5.00000000      5.00000000      5.00000000      5.00000000      5.00000000      5.00000000      0.60000000      0.60000000      0.60000000      0.60000000
      0.60000000      0.60000000      0.60000000      0.60000000      0.60000000      0.60000000      0.60000000      0.60000000      0.60000000      0.60000000      0.60000000      0.60000000      0.60000000      0.60000000      0.60000000      0.60000000      0.60000000      0.60000000      0.60000000      0.60000000
      0.60000000      0.60000000      0.60000000      0.60000000      0.60000000      0.60000000      0.60000000      0.60000000      0.60000000      0.60000000      0.60000000      0.60000000      0.60000000      0.60000000      0.60000000      0.60000000      0.60000000      0.60000000      0.60000000      0.60000000
      0.60000000      0.60000000      0.60000000      0.60000000      0.60000000      0.60000000      0.60000000      0.60000000      0.60000000      0.60000000      0.60000000      0.60000000      0.60000000      0.60000000      0.60000000      0.60000000      0.60000000      0.60000000      0.60000000      0.60000000
</v>
  <i type="logical" name="LREAL"> F  </i>
  <i type="int" name="ISMEAR">     0</i>
  <i name="SIGMA">      0.05000000</i>
  <i type="int" name="NWRITE">     1</i>
  <i type="int" name="LMAXMIX">     4</i>
  <i type="logical" name="LWAVE"> F  </i>
  <i type="logical" name="LASPH"> T  </i>
  <v type="int" name="KPOINT_BSE">    -1     0     0     0</v>
  <i type="int" name="NELM">   200</i>
  <i type="string" name="GGA"> pe</i>
  <i type="logical" name="LDAU"> T  </i>
  <v type="int" name="LDAUTYPE">     2</v>
  <v type="int" name="LDAUL">    -1     2    -1    -1</v>
  <v name="LDAUU">      0.00000000      4.00000000      0.00000000      0.00000000</v>
  <v name="LDAUJ">      0.00000000      0.00000000      0.00000000      0.00000000</v>
  <i type="logical" name="LASPH"> T  </i>
 </incar>
 <structure name="primitive_cell" >
  <crystal>
   <varray name="basis" >
    <v>      15.42482202       0.00000000       0.00000000 </v>
    <v>       0.00000000      11.21024242       0.00000000 </v>
    <v>       0.00000000       0.00000000      11.27702698 </v>
   </varray>
   <i name="volume">   1949.97833107 </i>
   <varray name="rec_basis" >
    <v>       0.06483057       0.00000000       0.00000000 </v>
    <v>       0.00000000       0.08920414       0.00000000 </v>
    <v>       0.00000000       0.00000000       0.08867585 </v>
   </varray>
  </crystal>
  <varray name="positions" >
   <v>       0.12500000       0.25089204       0.46751009 </v>
   <v>       0.00000000       0.25000000      -0.50000000 </v>
   <v>       0.25000000       0.25000000      -0.50000000 </v>
   <v>       0.12500000       0.25000000       0.24893947 </v>
   <v>      -0.01393352       0.37500000       0.37500000 </v>
   <v>       0.26393352       0.12500000       0.37500000 </v>
   <v>       0.01924068       0.37500000      -0.37500000 </v>
   <v>       0.23075932       0.12500000      -0.37500000 </v>
   <v>       0.12500000      -0.50000000      -0.49893947 </v>
   <v>       0.26924068       0.37500000       0.37500000 </v>
   <v>       0.23606648       0.37500000      -0.37500000 </v>
   <v>      -0.01924068       0.12500000       0.37500000 </v>
   <v>       0.12500000       0.00000000      -0.49893947 </v>
   <v>       0.01393352       0.12500000      -0.37500000 </v>
   <v>       0.12500000       0.25000000      -0.25106053 </v>
   <v>       0.12500000      -0.50000000       0.28248991 </v>
   <v>       0.12500000       0.00000000       0.28248991 </v>
   <v>       0.37500000       0.25000000      -0.46751009 </v>
   <v>      -0.12500000       0.25000000      -0.46751009 </v>
   <v>       0.00000000      -0.50000000       0.25000000 </v>
   <v>       0.25000000      -0.50000000       0.25000000 </v>
   <v>       0.00000000       0.00000000       0.25000000 </v>
   <v>       0.25000000       0.00000000       0.25000000 </v>
   <v>       0.01924068       0.37500000       0.12500000 </v>
   <v>       0.23075932       0.12500000       0.12500000 </v>
   <v>       0.23606648       0.37500000       0.12500000 </v>
   <v>       0.01393352       0.12500000       0.12500000 </v>
   <v>       0.12500000      -0.50000000      -0.21751009 </v>
   <v>       0.12500000       0.00000000      -0.21751009 </v>
   <v>       0.37500000       0.25000000       0.25106053 </v>
   <v>      -0.12500000       0.25000000       0.25106053 </v>
   <v>       0.00000000      -0.50000000      -0.25000000 </v>
   <v>       0.25000000      -0.50000000      -0.25000000 </v>
   <v>       0.00000000       0.00000000      -0.25000000 </v>
   <v>       0.25000000       0.00000000      -0.25000000 </v>
   <v>       0.37500000      -0.50000000       0.49893947 </v>
   <v>      -0.12500000      -0.50000000       0.49893947 </v>
   <v>       0.37500000       0.00000000       0.49893947 </v>
   <v>      -0.12500000       0.00000000       0.49893947 </v>
   <v>       0.26393352      -0.37500000       0.37500000 </v>
   <v>       0.23075932      -0.37500000      -0.37500000 </v>
   <v>      -0.01393352      -0.12500000       0.37500000 </v>
   <v>       0.01924068      -0.12500000      -0.37500000 </v>
   <v>      -0.01924068      -0.37500000       0.37500000 </v>
   <v>       0.01393352      -0.37500000      -0.37500000 </v>
   <v>       0.26924068      -0.12500000       0.37500000 </v>
   <v>       0.23606648      -0.12500000      -0.37500000 </v>
   <v>       0.37500000       0.25000000      -0.24893947 </v>
   <v>      -0.12500000       0.25000000      -0.24893947 </v>
   <v>      -0.01393352       0.37500000      -0.12500000 </v>
   <v>       0.26393352       0.12500000      -0.12500000 </v>
   <v>       0.26924068       0.37500000      -0.12500000 </v>
   <v>      -0.01924068       0.12500000      -0.12500000 </v>
   <v>       0.37500000      -0.50000000       0.21751009 </v>
   <v>      -0.12500000      -0.50000000       0.21751009 </v>
   <v>       0.37500000      -0.50000000      -0.28248991 </v>
   <v>      -0.12500000      -0.50000000      -0.28248991 </v>
   <v>       0.37500000       0.00000000       0.21751009 </v>
   <v>      -0.12500000       0.00000000       0.21751009 </v>
   <v>       0.37500000       0.00000000      -0.28248991 </v>
   <v>      -0.12500000       0.00000000      -0.28248991 </v>
   <v>       0.12500000      -0.25000000       0.46751009 </v>
   <v>       0.00000000       0.25000000       0.00000000 </v>
   <v>       0.25000000       0.25000000       0.00000000 </v>
   <v>       0.12500000       0.25000000      -0.03248991 </v>
   <v>      -0.23075932       0.37500000       0.37500000 </v>
   <v>       0.48075932       0.12500000       0.37500000 </v>
   <v>      -0.50000000       0.25000000      -0.50000000 </v>
   <v>      -0.25000000       0.25000000      -0.50000000 </v>
   <v>       0.48606648       0.37500000       0.37500000 </v>
   <v>      -0.23606648       0.12500000       0.37500000 </v>
   <v>       0.00000000      -0.25000000      -0.50000000 </v>
   <v>       0.25000000      -0.25000000      -0.50000000 </v>
   <v>       0.23075932      -0.37500000       0.12500000 </v>
   <v>       0.01924068      -0.12500000       0.12500000 </v>
   <v>       0.01393352      -0.37500000       0.12500000 </v>
   <v>       0.12500000      -0.50000000       0.00106053 </v>
   <v>       0.12500000       0.00000000       0.00106053 </v>
   <v>       0.23606648      -0.12500000       0.12500000 </v>
   <v>       0.12500000      -0.25000000       0.24893947 </v>
   <v>       0.37500000       0.25000000       0.03248991 </v>
   <v>      -0.12500000       0.25000000       0.03248991 </v>
   <v>      -0.26393352       0.37500000      -0.37500000 </v>
   <v>      -0.48606648       0.12500000      -0.37500000 </v>
   <v>       0.12500000      -0.25000000      -0.25106053 </v>
   <v>      -0.48075932       0.37500000      -0.37500000 </v>
   <v>      -0.26924068       0.12500000      -0.37500000 </v>
   <v>       0.26393352      -0.37500000      -0.12500000 </v>
   <v>      -0.01393352      -0.12500000      -0.12500000 </v>
   <v>      -0.01924068      -0.37500000      -0.12500000 </v>
   <v>       0.26924068      -0.12500000      -0.12500000 </v>
   <v>       0.37500000      -0.25000000      -0.46751009 </v>
   <v>      -0.12500000      -0.25000000      -0.46751009 </v>
   <v>      -0.50000000      -0.50000000       0.25000000 </v>
   <v>      -0.25000000      -0.50000000       0.25000000 </v>
   <v>      -0.50000000       0.00000000       0.25000000 </v>
   <v>      -0.25000000       0.00000000       0.25000000 </v>
   <v>       0.48075932      -0.37500000       0.37500000 </v>
   <v>      -0.23075932      -0.12500000       0.37500000 </v>
   <v>      -0.23606648      -0.37500000       0.37500000 </v>
   <v>       0.48606648      -0.12500000       0.37500000 </v>
   <v>       0.37500000      -0.50000000      -0.00106053 </v>
   <v>      -0.12500000      -0.50000000      -0.00106053 </v>
   <v>       0.37500000       0.00000000      -0.00106053 </v>
   <v>      -0.12500000       0.00000000      -0.00106053 </v>
   <v>      -0.50000000      -0.50000000      -0.25000000 </v>
   <v>      -0.25000000      -0.50000000      -0.25000000 </v>
   <v>      -0.50000000       0.00000000      -0.25000000 </v>
   <v>      -0.25000000       0.00000000      -0.25000000 </v>
   <v>       0.37500000      -0.25000000       0.25106053 </v>
   <v>      -0.12500000      -0.25000000       0.25106053 </v>
   <v>      -0.26393352       0.37500000       0.12500000 </v>
   <v>      -0.48606648       0.12500000       0.12500000 </v>
   <v>      -0.23075932       0.37500000      -0.12500000 </v>
   <v>       0.48075932       0.12500000      -0.12500000 </v>
   <v>      -0.48075932       0.37500000       0.12500000 </v>
   <v>      -0.26924068       0.12500000       0.12500000 </v>
   <v>       0.48606648       0.37500000      -0.12500000 </v>
   <v>      -0.23606648       0.12500000      -0.12500000 </v>
   <v>       0.37500000      -0.25000000      -0.24893947 </v>
   <v>      -0.12500000      -0.25000000      -0.24893947 </v>
   <v>      -0.48606648      -0.37500000      -0.37500000 </v>
   <v>      -0.26393352      -0.12500000      -0.37500000 </v>
   <v>      -0.26924068      -0.37500000      -0.37500000 </v>
   <v>      -0.48075932      -0.12500000      -0.37500000 </v>
   <v>      -0.37500000       0.25000000       0.46751009 </v>
   <v>      -0.50000000       0.25000000       0.00000000 </v>
   <v>      -0.25000000       0.25000000       0.00000000 </v>
   <v>       0.00000000      -0.25000000       0.00000000 </v>
   <v>       0.25000000      -0.25000000       0.00000000 </v>
   <v>       0.12500000      -0.25000000      -0.03248991 </v>
   <v>      -0.50000000      -0.25000000      -0.50000000 </v>
   <v>      -0.25000000      -0.25000000      -0.50000000 </v>
   <v>      -0.37500000       0.25000000       0.24893947 </v>
   <v>      -0.37500000      -0.50000000      -0.49893947 </v>
   <v>      -0.37500000       0.00000000      -0.49893947 </v>
   <v>      -0.48606648      -0.37500000       0.12500000 </v>
   <v>      -0.26393352      -0.12500000       0.12500000 </v>
   <v>       0.48075932      -0.37500000      -0.12500000 </v>
   <v>      -0.23075932      -0.12500000      -0.12500000 </v>
   <v>      -0.26924068      -0.37500000       0.12500000 </v>
   <v>      -0.37500000       0.25000000      -0.25106053 </v>
   <v>      -0.48075932      -0.12500000       0.12500000 </v>
   <v>      -0.23606648      -0.37500000      -0.12500000 </v>
   <v>       0.48606648      -0.12500000      -0.12500000 </v>
   <v>       0.37500000      -0.25000000       0.03248991 </v>
   <v>      -0.12500000      -0.25000000       0.03248991 </v>
   <v>      -0.37500000      -0.50000000       0.28248991 </v>
   <v>      -0.37500000       0.00000000       0.28248991 </v>
   <v>      -0.37500000      -0.50000000      -0.21751009 </v>
   <v>      -0.37500000       0.00000000      -0.21751009 </v>
   <v>      -0.37500000      -0.25000000       0.46751009 </v>
   <v>      -0.37500000       0.25000000      -0.03248991 </v>
   <v>      -0.50000000      -0.25000000       0.00000000 </v>
   <v>      -0.25000000      -0.25000000       0.00000000 </v>
   <v>      -0.37500000      -0.50000000       0.00106053 </v>
   <v>      -0.37500000       0.00000000       0.00106053 </v>
   <v>      -0.37500000      -0.25000000       0.24893947 </v>
   <v>      -0.37500000      -0.25000000      -0.25106053 </v>
   <v>      -0.37500000      -0.25000000      -0.03248991 </v>
  </varray>
 </structure>
 <varray name="primitive_index" >
  <v type="int" >        1 </v>
  <v type="int" >      133 </v>
  <v type="int" >      149 </v>
  <v type="int" >      105 </v>
  <v type="int" >       66 </v>
  <v type="int" >       89 </v>
  <v type="int" >       53 </v>
  <v type="int" >       45 </v>
  <v type="int" >       99 </v>
  <v type="int" >       33 </v>
  <v type="int" >       85 </v>
  <v type="int" >       58 </v>
  <v type="int" >       97 </v>
  <v type="int" >       77 </v>
  <v type="int" >      109 </v>
  <v type="int" >       11 </v>
  <v type="int" >        9 </v>
  <v type="int" >       21 </v>
  <v type="int" >       22 </v>
  <v type="int" >      139 </v>
  <v type="int" >      155 </v>
  <v type="int" >      137 </v>
  <v type="int" >      153 </v>
  <v type="int" >       49 </v>
  <v type="int" >       41 </v>
  <v type="int" >       81 </v>
  <v type="int" >       73 </v>
  <v type="int" >       15 </v>
  <v type="int" >       13 </v>
  <v type="int" >      121 </v>
  <v type="int" >      122 </v>
  <v type="int" >      143 </v>
  <v type="int" >      159 </v>
  <v type="int" >      141 </v>
  <v type="int" >      157 </v>
  <v type="int" >      119 </v>
  <v type="int" >      120 </v>
  <v type="int" >      117 </v>
  <v type="int" >      118 </v>
  <v type="int" >       91 </v>
  <v type="int" >       47 </v>
  <v type="int" >       68 </v>
  <v type="int" >       55 </v>
  <v type="int" >       60 </v>
  <v type="int" >       79 </v>
  <v type="int" >       35 </v>
  <v type="int" >       87 </v>
  <v type="int" >      125 </v>
  <v type="int" >      126 </v>
  <v type="int" >       70 </v>
  <v type="int" >       93 </v>
  <v type="int" >       37 </v>
  <v type="int" >       62 </v>
  <v type="int" >       27 </v>
  <v type="int" >       28 </v>
  <v type="int" >       31 </v>
  <v type="int" >       32 </v>
  <v type="int" >       25 </v>
  <v type="int" >       26 </v>
  <v type="int" >       29 </v>
  <v type="int" >       30 </v>
  <v type="int" >        3 </v>
  <v type="int" >      129 </v>
  <v type="int" >      145 </v>
  <v type="int" >        5 </v>
  <v type="int" >       34 </v>
  <v type="int" >       57 </v>
  <v type="int" >      134 </v>
  <v type="int" >      150 </v>
  <v type="int" >       65 </v>
  <v type="int" >       90 </v>
  <v type="int" >      135 </v>
  <v type="int" >      151 </v>
  <v type="int" >       43 </v>
  <v type="int" >       51 </v>
  <v type="int" >       75 </v>
  <v type="int" >      103 </v>
  <v type="int" >      101 </v>
  <v type="int" >       83 </v>
  <v type="int" >      107 </v>
  <v type="int" >       17 </v>
  <v type="int" >       18 </v>
  <v type="int" >       86 </v>
  <v type="int" >       78 </v>
  <v type="int" >      111 </v>
  <v type="int" >       54 </v>
  <v type="int" >       46 </v>
  <v type="int" >       95 </v>
  <v type="int" >       72 </v>
  <v type="int" >       64 </v>
  <v type="int" >       39 </v>
  <v type="int" >       23 </v>
  <v type="int" >       24 </v>
  <v type="int" >      140 </v>
  <v type="int" >      156 </v>
  <v type="int" >      138 </v>
  <v type="int" >      154 </v>
  <v type="int" >       59 </v>
  <v type="int" >       36 </v>
  <v type="int" >       92 </v>
  <v type="int" >       67 </v>
  <v type="int" >      115 </v>
  <v type="int" >      116 </v>
  <v type="int" >      113 </v>
  <v type="int" >      114 </v>
  <v type="int" >      144 </v>
  <v type="int" >      160 </v>
  <v type="int" >      142 </v>
  <v type="int" >      158 </v>
  <v type="int" >      123 </v>
  <v type="int" >      124 </v>
  <v type="int" >       82 </v>
  <v type="int" >       74 </v>
  <v type="int" >       38 </v>
  <v type="int" >       61 </v>
  <v type="int" >       50 </v>
  <v type="int" >       42 </v>
  <v type="int" >       69 </v>
  <v type="int" >       94 </v>
  <v type="int" >      127 </v>
  <v type="int" >      128 </v>
  <v type="int" >       80 </v>
  <v type="int" >       88 </v>
  <v type="int" >       48 </v>
  <v type="int" >       56 </v>
  <v type="int" >        2 </v>
  <v type="int" >      130 </v>
  <v type="int" >      146 </v>
  <v type="int" >      131 </v>
  <v type="int" >      147 </v>
  <v type="int" >        7 </v>
  <v type="int" >      136 </v>
  <v type="int" >      152 </v>
  <v type="int" >      106 </v>
  <v type="int" >      100 </v>
  <v type="int" >       98 </v>
  <v type="int" >       76 </v>
  <v type="int" >       84 </v>
  <v type="int" >       63 </v>
  <v type="int" >       40 </v>
  <v type="int" >       44 </v>
  <v type="int" >      110 </v>
  <v type="int" >       52 </v>
  <v type="int" >       96 </v>
  <v type="int" >       71 </v>
  <v type="int" >       19 </v>
  <v type="int" >       20 </v>
  <v type="int" >       12 </v>
  <v type="int" >       10 </v>
  <v type="int" >       16 </v>
  <v type="int" >       14 </v>
  <v type="int" >        4 </v>
  <v type="int" >        6 </v>
  <v type="int" >      132 </v>
  <v type="int" >      148 </v>
  <v type="int" >      104 </v>
  <v type="int" >      102 </v>
  <v type="int" >      108 </v>
  <v type="int" >      112 </v>
  <v type="int" >        8 </v>
 </varray>
 <kpoints>
  <generation param="Gamma">
   <v type="int" name="divisions">       2        3        3 </v>
   <v name="usershift">      0.00000000       0.00000000       0.00000000 </v>
   <v name="genvec1">      0.50000000       0.00000000       0.00000000 </v>
   <v name="genvec2">      0.00000000       0.33333333       0.00000000 </v>
   <v name="genvec3">      0.00000000       0.00000000       0.33333333 </v>
   <v name="shift">      0.00000000       0.00000000       0.00000000 </v>
  </generation>
  <varray name="kpointlist" >
   <v>       0.00000000       0.00000000       0.00000000 </v>
   <v>       0.50000000       0.00000000       0.00000000 </v>
   <v>       0.00000000       0.33333333       0.00000000 </v>
   <v>       0.50000000       0.33333333       0.00000000 </v>
   <v>       0.00000000       0.00000000       0.33333333 </v>
   <v>       0.50000000       0.00000000       0.33333333 </v>
   <v>       0.00000000       0.33333333       0.33333333 </v>
   <v>       0.50000000       0.33333333       0.33333333 </v>
   <v>       0.00000000      -0.33333333       0.33333333 </v>
   <v>       0.50000000      -0.33333333       0.33333333 </v>
  </varray>
  <varray name="weights" >
   <v>       0.05555556 </v>
   <v>       0.05555556 </v>
   <v>       0.11111111 </v>
   <v>       0.11111111 </v>
   <v>       0.11111111 </v>
   <v>       0.11111111 </v>
   <v>       0.11111111 </v>
   <v>       0.11111111 </v>
   <v>       0.11111111 </v>
   <v>       0.11111111 </v>
  </varray>
 </kpoints>
 <parameters>
  <separator name="general" >
   <i type="string" name="SYSTEM">unknown system</i>
   <i type="logical" name="LCOMPAT"> F  </i>
  </separator>
  <separator name="electronic" >
   <i type="string" name="PREC">accura</i>
   <i name="ENMAX">    650.00000000</i>
   <i name="ENAUG">    628.94500000</i>
   <i name="EDIFF">      0.00000100</i>
   <i type="int" name="IALGO">    38</i>
   <i type="int" name="IWAVPR">    10</i>
   <i type="int" name="NBANDS">   732</i>
   <i name="NELECT">   1024.00000000</i>
   <i type="int" name="TURBO">     0</i>
   <i type="int" name="IRESTART">     0</i>
   <i type="int" name="NREBOOT">     0</i>
   <i type="int" name="NMIN">     0</i>
   <i name="EREF">      0.00000000</i>
   <separator name="electronic smearing" >
    <i type="int" name="ISMEAR">     0</i>
    <i name="SIGMA">      0.05000000</i>
    <i name="KSPACING">      0.50000000</i>
    <i type="logical" name="KGAMMA"> T  </i>
   </separator>
   <separator name="electronic projectors" >
    <i type="logical" name="LREAL"> F  </i>
    <v name="ROPT">      0.00000000      0.00000000      0.00000000      0.00000000</v>
    <i type="int" name="LMAXPAW">  -100</i>
    <i type="int" name="LMAXMIX">     4</i>
    <i type="logical" name="NLSPLINE"> F  </i>
   </separator>
   <separator name="electronic startup" >
    <i type="int" name="ISTART">     0</i>
    <i type="int" name="ICHARG">     1</i>
    <i type="int" name="INIWAV">     1</i>
   </separator>
   <separator name="electronic spin" >
    <i type="int" name="ISPIN">     2</i>
    <i type="logical" name="LNONCOLLINEAR"> F  </i>
    <v name="MAGMOM">      0.60000000      0.60000000      0.60000000      0.60000000      0.60000000      0.60000000      0.60000000      0.60000000      0.60000000      0.60000000      0.60000000      0.60000000      0.60000000      0.60000000      0.60000000      0.60000000      0.60000000      0.60000000      0.60000000      0.60000000
      0.60000000      0.60000000      0.60000000      0.60000000      0.60000000      0.60000000      0.60000000      0.60000000      0.60000000      0.60000000      0.60000000      0.60000000      0.60000000      0.60000000      0.60000000      0.60000000      0.60000000      0.60000000      0.60000000      0.60000000
      0.60000000      0.60000000      0.60000000      0.60000000      0.60000000      0.60000000      0.60000000      0.60000000      0.60000000      0.60000000      0.60000000      0.60000000      0.60000000      0.60000000      0.60000000      0.60000000      0.60000000      0.60000000      0.60000000      0.60000000
      0.60000000      0.60000000      0.60000000      0.60000000      5.00000000      5.00000000      5.00000000      5.00000000      5.00000000      5.00000000      5.00000000      5.00000000      5.00000000      5.00000000      5.00000000      5.00000000      5.00000000      5.00000000      5.00000000      5.00000000
      5.00000000      5.00000000      5.00000000      5.00000000      5.00000000      5.00000000      5.00000000      5.00000000      5.00000000      5.00000000      5.00000000      5.00000000      5.00000000      5.00000000      5.00000000      5.00000000      0.60000000      0.60000000      0.60000000      0.60000000
      0.60000000      0.60000000      0.60000000      0.60000000      0.60000000      0.60000000      0.60000000      0.60000000      0.60000000      0.60000000      0.60000000      0.60000000      0.60000000      0.60000000      0.60000000      0.60000000      0.60000000      0.60000000      0.60000000      0.60000000
      0.60000000      0.60000000      0.60000000      0.60000000      0.60000000      0.60000000      0.60000000      0.60000000      0.60000000      0.60000000      0.60000000      0.60000000      0.60000000      0.60000000      0.60000000      0.60000000      0.60000000      0.60000000      0.60000000      0.60000000
      0.60000000      0.60000000      0.60000000      0.60000000      0.60000000      0.60000000      0.60000000      0.60000000      0.60000000      0.60000000      0.60000000      0.60000000      0.60000000      0.60000000      0.60000000      0.60000000      0.60000000      0.60000000      0.60000000      0.60000000
</v>
    <i name="NUPDOWN">     -1.00000000</i>
    <i type="logical" name="LSORBIT"> F  </i>
    <v name="SAXIS">      0.00000000      0.00000000      1.00000000</v>
    <i type="logical" name="LSPIRAL"> F  </i>
    <v name="QSPIRAL">      0.00000000      0.00000000      0.00000000</v>
    <i type="logical" name="LZEROZ"> F  </i>
   </separator>
   <separator name="electronic exchange-correlation" >
    <i type="logical" name="LASPH"> T  </i>
    <i type="logical" name="LMETAGGA"> F  </i>
   </separator>
   <separator name="electronic convergence" >
    <i type="int" name="NELM">   200</i>
    <i type="int" name="NELMDL">     0</i>
    <i type="int" name="NELMIN">     8</i>
    <i name="ENINI">    650.00000000</i>
    <separator name="electronic convergence detail" >
     <i type="logical" name="LDIAG"> T  </i>
     <i type="logical" name="LSUBROT"> F  </i>
     <i name="WEIMIN">      0.00000000</i>
     <i name="EBREAK">      0.00000000</i>
     <i name="DEPER">      0.30000000</i>
     <i type="int" name="NRMM">     4</i>
     <i name="TIME">      0.40000000</i>
    </separator>
   </separator>
   <separator name="electronic mixer" >
    <i name="AMIX">      0.40000000</i>
    <i name="BMIX">      1.00000000</i>
    <i name="AMIN">      0.10000000</i>
    <i name="AMIX_MAG">      1.60000000</i>
    <i name="BMIX_MAG">      1.00000000</i>
    <separator name="electronic mixer details" >
     <i type="int" name="IMIX">     4</i>
     <i type="logical" name="MIXFIRST"> F  </i>
     <i type="int" name="MAXMIX">   -45</i>
     <i name="WC">    100.00000000</i>
     <i type="int" name="INIMIX">     1</i>
     <i type="int" name="MIXPRE">     1</i>
     <i type="int" name="MREMOVE">     5</i>
    </separator>
   </separator>
   <separator name="electronic dipolcorrection" >
    <i type="logical" name="LDIPOL"> F  </i>
    <i type="logical" name="LMONO"> F  </i>
    <i type="int" name="IDIPOL">     0</i>
    <i name="EPSILON">      1.00000000</i>
    <v name="DIPOL">   -100.00000000   -100.00000000   -100.00000000</v>
    <i name="EFIELD">      0.00000000</i>
   </separator>
  </separator>
  <separator name="grids" >
   <i type="int" name="NGX">   128</i>
   <i type="int" name="NGY">    96</i>
   <i type="int" name="NGZ">    96</i>
   <i type="int" name="NGXF">   256</i>
   <i type="int" name="NGYF">   192</i>
   <i type="int" name="NGZF">   192</i>
   <i type="logical" name="ADDGRID"> T  </i>
  </separator>
  <separator name="ionic" >
   <i type="int" name="NSW">     0</i>
   <i type="int" name="IBRION">    -1</i>
   <i type="int" name="MDALGO">     0</i>
   <i type="int" name="ISIF">     2</i>
   <i name="PSTRESS">      0.00000000</i>
   <i name="EDIFFG">      0.00001000</i>
   <i type="int" name="NFREE">     0</i>
   <i name="POTIM">      0.50000000</i>
   <i name="SMASS">     -3.00000000</i>
   <i name="SCALEE">      1.00000000</i>
  </separator>
  <separator name="ionic md" >
   <i name="TEBEG">      0.00010000</i>
   <i name="TEEND">      0.00010000</i>
   <i type="int" name="NBLOCK">     1</i>
   <i type="int" name="KBLOCK">     1</i>
   <i type="int" name="NPACO">   256</i>
   <i name="APACO">     16.00000000</i>
  </separator>
  <separator name="symmetry" >
   <i type="int" name="ISYM">     2</i>
   <i name="SYMPREC">      0.00001000</i>
  </separator>
  <separator name="dos" >
   <i type="int" name="LORBIT">     0</i>
   <v name="RWIGS">     -1.00000000     -1.00000000     -1.00000000     -1.00000000</v>
   <i type="int" name="NEDOS">   301</i>
   <i name="EMIN">     10.00000000</i>
   <i name="EMAX">    -10.00000000</i>
   <i name="EFERMI">      0.00000000</i>
  </separator>
  <separator name="writing" >
   <i type="int" name="NWRITE">     1</i>
   <i type="logical" name="LWAVE"> F  </i>
   <i type="logical" name="LDOWNSAMPLE"> F  </i>
   <i type="logical" name="LCHARG"> T  </i>
   <i type="logical" name="LPARD"> F  </i>
   <i type="logical" name="LVTOT"> F  </i>
   <i type="logical" name="LVHAR"> F  </i>
   <i type="logical" name="LELF"> F  </i>
   <i type="logical" name="LOPTICS"> F  </i>
   <v name="STM">      0.00000000      0.00000000      0.00000000      0.00000000      0.00000000      0.00000000      0.00000000</v>
  </separator>
  <separator name="performance" >
   <i type="int" name="NPAR">     4</i>
   <i type="int" name="NSIM">     4</i>
   <i type="int" name="NBLK">    -1</i>
   <i type="logical" name="LPLANE"> T  </i>
   <i type="logical" name="LSCALAPACK"> T  </i>
   <i type="logical" name="LSCAAWARE"> F  </i>
   <i type="logical" name="LSCALU"> F  </i>
   <i type="logical" name="LASYNC"> F  </i>
   <i type="logical" name="LORBITALREAL"> F  </i>
  </separator>
  <separator name="miscellaneous" >
   <i type="int" name="IDIOT">     3</i>
   <i type="int" name="ISPECIAL">     0</i>
   <i type="logical" name="LMUSIC"> F  </i>
   <v name="POMASS">      7.01000000     55.84700000     32.06600000     16.00000000</v>
   <v name="DARWINR">      0.00000000      0.00000000      0.00000000      0.00000000</v>
   <v name="DARWINV">      1.00000000      1.00000000      1.00000000      1.00000000</v>
   <i type="logical" name="LCORR"> T  </i>
  </separator>
  <i type="logical" name="GGA_COMPAT"> T  </i>
  <i type="logical" name="LBERRY"> F  </i>
  <i type="int" name="ICORELEVEL">     0</i>
  <i type="logical" name="LDAU"> T  </i>
  <v type="int" name="LDAUTYPE">     2</v>
  <v type="int" name="LDAUL">    -1</v>
  <v name="LDAUU">      0.00000000</v>
  <v name="LDAUJ">      0.00000000</v>
  <i type="int" name="LDAUPRINT">     0</i>
  <i type="int" name="I_CONSTRAINED_M">     0</i>
  <separator name="electronic exchange-correlation" >
   <i type="string" name="GGA">PE</i>
   <i type="int" name="VOSKOWN">     0</i>
   <i type="logical" name="LHFCALC"> F  </i>
   <i type="string" name="PRECFOCK"></i>
   <i type="logical" name="LSYMGRAD"> F  </i>
   <i type="logical" name="LHFONE"> F  </i>
   <i type="logical" name="LRHFCALC"> F  </i>
   <i type="logical" name="LTHOMAS"> F  </i>
   <i type="logical" name="LMODELHF"> F  </i>
   <i name="ENCUT4O">     -1.00000000</i>
   <i type="int" name="EXXOEP">     0</i>
   <i type="int" name="FOURORBIT">     0</i>
   <i name="AEXX">      0.00000000</i>
   <i name="HFALPHA">      0.00000000</i>
   <i name="MCALPHA">      0.00000000</i>
   <i name="ALDAX">      1.00000000</i>
   <i name="AGGAX">      1.00000000</i>
   <i name="ALDAC">      1.00000000</i>
   <i name="AGGAC">      1.00000000</i>
   <i type="int" name="NKREDX">     1</i>
   <i type="int" name="NKREDY">     1</i>
   <i type="int" name="NKREDZ">     1</i>
   <i type="logical" name="SHIFTRED"> F  </i>
   <i type="logical" name="ODDONLY"> F  </i>
   <i type="logical" name="EVENONLY"> F  </i>
   <i type="int" name="LMAXFOCK">     0</i>
   <i type="int" name="NMAXFOCKAE">     0</i>
   <i type="logical" name="LFOCKAEDFT"> F  </i>
   <i name="HFSCREEN">      0.00000000</i>
   <i name="HFSCREENC">      0.00000000</i>
   <i type="int" name="NBANDSGWLOW">     0</i>
  </separator>
  <separator name="vdW DFT" >
   <i type="logical" name="LUSE_VDW"> F  </i>
   <i name="Zab_VDW">     -0.84910000</i>
   <i name="PARAM1">      0.12340000</i>
   <i name="PARAM2">      1.00000000</i>
   <i name="PARAM3">      0.00000000</i>
  </separator>
  <separator name="model GW" >
   <i type="int" name="MODEL_GW">     0</i>
   <i name="MODEL_EPS0">      7.31241874</i>
   <i name="MODEL_ALPHA">      1.00000000</i>
  </separator>
  <separator name="linear response parameters" >
   <i type="logical" name="LEPSILON"> F  </i>
   <i type="logical" name="LRPA"> F  </i>
   <i type="logical" name="LNABLA"> F  </i>
   <i type="logical" name="LVEL"> F  </i>
   <i type="int" name="KINTER">     0</i>
   <i name="CSHIFT">      0.10000000</i>
   <i name="OMEGAMAX">     -1.00000000</i>
   <i name="DEG_THRESHOLD">      0.00200000</i>
   <i name="RTIME">     -0.10000000</i>
   <i name="WPLASMAI">      0.00000000</i>
   <v name="DFIELD">      0.00000000      0.00000000      0.00000000</v>
   <v name="WPLASMA">      0.00000000      0.00000000      0.00000000      0.00000000      0.00000000      0.00000000      0.00000000      0.00000000      0.00000000</v>
  </separator>
  <separator name="orbital magnetization" >
   <i type="logical" name="NUCIND"> F  </i>
   <v name="MAGPOS">      0.00000000      0.00000000      0.00000000</v>
   <i type="logical" name="LNICSALL"> T  </i>
   <i type="logical" name="ORBITALMAG"> F  </i>
   <i type="logical" name="LMAGBLOCH"> F  </i>
   <i type="logical" name="LCHIMAG"> F  </i>
   <i type="logical" name="LGAUGE"> T  </i>
   <i type="int" name="MAGATOM">     0</i>
   <v name="MAGDIPOL">      0.00000000      0.00000000      0.00000000</v>
   <v name="AVECCONST">      0.00000000      0.00000000      0.00000000</v>
  </separator>
  <separator name="response functions" >
   <i type="logical" name="LADDER"> F  </i>
   <i type="logical" name="LRPAFORCE"> F  </i>
   <i type="logical" name="LFXC"> F  </i>
   <i type="logical" name="LHARTREE"> T  </i>
   <i type="int" name="IBSE">     0</i>
   <v type="int" name="KPOINT">    -1     0     0     0</v>
   <i type="logical" name="LTCTE"> F  </i>
   <i type="logical" name="LTETE"> F  </i>
   <i type="logical" name="LTRIPLET"> F  </i>
   <i type="logical" name="LFXCEPS"> F  </i>
   <i type="logical" name="LFXHEG"> F  </i>
   <i type="int" name="NATURALO">     2</i>
   <i type="logical" name="L2ORDER"> F  </i>
   <i type="logical" name="LMP2LT"> F  </i>
   <i type="logical" name="LUSEW"> F  </i>
   <i name="ENCUTGW">     -2.00000000</i>
   <i name="ENCUTGWSOFT">     -2.00000000</i>
   <i name="ENCUTLF">     -1.00000000</i>
   <i type="int" name="LMAXMP2">    -1</i>
   <i name="SCISSOR">      0.00000000</i>
   <i type="int" name="NOMEGA">     0</i>
   <i type="int" name="NOMEGAR">     0</i>
   <i type="int" name="NBANDSGW">    -1</i>
   <i type="int" name="NBANDSO">    -1</i>
   <i type="int" name="NBANDSV">    -1</i>
   <i type="int" name="NELM">   200</i>
   <i type="int" name="NELMHF">     1</i>
   <i type="int" name="DIM">     3</i>
   <i type="int" name="ANTIRES">     0</i>
   <i name="OMEGAMAX">    -30.00000000</i>
   <i name="OMEGAMIN">    -30.00000000</i>
   <i name="OMEGATL">   -200.00000000</i>
   <i type="int" name="OMEGAGRID">   140</i>
   <i name="CSHIFT">     -0.10000000</i>
   <i type="logical" name="SELFENERGY"> F  </i>
   <i type="logical" name="LSPECTRAL"> F  </i>
   <i type="logical" name="LSPECTRALGW"> F  </i>
   <i type="logical" name="LSINGLES"> F  </i>
   <i type="logical" name="LFERMIGW"> F  </i>
   <i type="logical" name="ODDONLYGW"> F  </i>
   <i type="logical" name="EVENONLYGW"> F  </i>
   <i type="int" name="NKREDLFX">     1</i>
   <i type="int" name="NKREDLFY">     1</i>
   <i type="int" name="NKREDLFZ">     1</i>
   <i type="int" name="MAXMEM">  2800</i>
   <i type="int" name="TELESCOPE">     0</i>
   <i type="int" name="TAUPAR">     1</i>
   <i type="int" name="OMEGAPAR">    -1</i>
   <i name="LAMBDA">      1.00000000</i>
  </separator>
  <separator name="External order field" >
   <i name="OFIELD_KAPPA">      0.00000000</i>
   <v name="OFIELD_K">      0.00000000      0.00000000      0.00000000</v>
   <i name="OFIELD_Q6_NEAR">      0.00000000</i>
   <i name="OFIELD_Q6_FAR">      0.00000000</i>
   <i name="OFIELD_A">      0.00000000</i>
  </separator>
 </parameters>
 <atominfo>
  <atoms>     160 </atoms>
  <types>       4 </types>
  <array name="atoms" >
   <dimension dim="1">ion</dimension>
   <field type="string">element</field>
   <field type="int">atomtype</field>
   <set>
    <rc><c>Li</c><c>   1</c></rc>
    <rc><c>Li</c><c>   1</c></rc>
    <rc><c>Li</c><c>   1</c></rc>
    <rc><c>Li</c><c>   1</c></rc>
    <rc><c>Li</c><c>   1</c></rc>
    <rc><c>Li</c><c>   1</c></rc>
    <rc><c>Li</c><c>   1</c></rc>
    <rc><c>Li</c><c>   1</c></rc>
    <rc><c>Li</c><c>   1</c></rc>
    <rc><c>Li</c><c>   1</c></rc>
    <rc><c>Li</c><c>   1</c></rc>
    <rc><c>Li</c><c>   1</c></rc>
    <rc><c>Li</c><c>   1</c></rc>
    <rc><c>Li</c><c>   1</c></rc>
    <rc><c>Li</c><c>   1</c></rc>
    <rc><c>Li</c><c>   1</c></rc>
    <rc><c>Li</c><c>   1</c></rc>
    <rc><c>Li</c><c>   1</c></rc>
    <rc><c>Li</c><c>   1</c></rc>
    <rc><c>Li</c><c>   1</c></rc>
    <rc><c>Li</c><c>   1</c></rc>
    <rc><c>Li</c><c>   1</c></rc>
    <rc><c>Li</c><c>   1</c></rc>
    <rc><c>Li</c><c>   1</c></rc>
    <rc><c>Li</c><c>   1</c></rc>
    <rc><c>Li</c><c>   1</c></rc>
    <rc><c>Li</c><c>   1</c></rc>
    <rc><c>Li</c><c>   1</c></rc>
    <rc><c>Li</c><c>   1</c></rc>
    <rc><c>Li</c><c>   1</c></rc>
    <rc><c>Li</c><c>   1</c></rc>
    <rc><c>Li</c><c>   1</c></rc>
    <rc><c>Li</c><c>   1</c></rc>
    <rc><c>Li</c><c>   1</c></rc>
    <rc><c>Li</c><c>   1</c></rc>
    <rc><c>Li</c><c>   1</c></rc>
    <rc><c>Li</c><c>   1</c></rc>
    <rc><c>Li</c><c>   1</c></rc>
    <rc><c>Li</c><c>   1</c></rc>
    <rc><c>Li</c><c>   1</c></rc>
    <rc><c>Li</c><c>   1</c></rc>
    <rc><c>Li</c><c>   1</c></rc>
    <rc><c>Li</c><c>   1</c></rc>
    <rc><c>Li</c><c>   1</c></rc>
    <rc><c>Li</c><c>   1</c></rc>
    <rc><c>Li</c><c>   1</c></rc>
    <rc><c>Li</c><c>   1</c></rc>
    <rc><c>Li</c><c>   1</c></rc>
    <rc><c>Li</c><c>   1</c></rc>
    <rc><c>Li</c><c>   1</c></rc>
    <rc><c>Li</c><c>   1</c></rc>
    <rc><c>Li</c><c>   1</c></rc>
    <rc><c>Li</c><c>   1</c></rc>
    <rc><c>Li</c><c>   1</c></rc>
    <rc><c>Li</c><c>   1</c></rc>
    <rc><c>Li</c><c>   1</c></rc>
    <rc><c>Li</c><c>   1</c></rc>
    <rc><c>Li</c><c>   1</c></rc>
    <rc><c>Li</c><c>   1</c></rc>
    <rc><c>Li</c><c>   1</c></rc>
    <rc><c>Li</c><c>   1</c></rc>
    <rc><c>Li</c><c>   1</c></rc>
    <rc><c>Li</c><c>   1</c></rc>
    <rc><c>Li</c><c>   1</c></rc>
    <rc><c>Fe</c><c>   2</c></rc>
    <rc><c>Fe</c><c>   2</c></rc>
    <rc><c>Fe</c><c>   2</c></rc>
    <rc><c>Fe</c><c>   2</c></rc>
    <rc><c>Fe</c><c>   2</c></rc>
    <rc><c>Fe</c><c>   2</c></rc>
    <rc><c>Fe</c><c>   2</c></rc>
    <rc><c>Fe</c><c>   2</c></rc>
    <rc><c>Fe</c><c>   2</c></rc>
    <rc><c>Fe</c><c>   2</c></rc>
    <rc><c>Fe</c><c>   2</c></rc>
    <rc><c>Fe</c><c>   2</c></rc>
    <rc><c>Fe</c><c>   2</c></rc>
    <rc><c>Fe</c><c>   2</c></rc>
    <rc><c>Fe</c><c>   2</c></rc>
    <rc><c>Fe</c><c>   2</c></rc>
    <rc><c>Fe</c><c>   2</c></rc>
    <rc><c>Fe</c><c>   2</c></rc>
    <rc><c>Fe</c><c>   2</c></rc>
    <rc><c>Fe</c><c>   2</c></rc>
    <rc><c>Fe</c><c>   2</c></rc>
    <rc><c>Fe</c><c>   2</c></rc>
    <rc><c>Fe</c><c>   2</c></rc>
    <rc><c>Fe</c><c>   2</c></rc>
    <rc><c>Fe</c><c>   2</c></rc>
    <rc><c>Fe</c><c>   2</c></rc>
    <rc><c>Fe</c><c>   2</c></rc>
    <rc><c>Fe</c><c>   2</c></rc>
    <rc><c>Fe</c><c>   2</c></rc>
    <rc><c>Fe</c><c>   2</c></rc>
    <rc><c>Fe</c><c>   2</c></rc>
    <rc><c>Fe</c><c>   2</c></rc>
    <rc><c>S </c><c>   3</c></rc>
    <rc><c>S </c><c>   3</c></rc>
    <rc><c>S </c><c>   3</c></rc>
    <rc><c>S </c><c>   3</c></rc>
    <rc><c>S </c><c>   3</c></rc>
    <rc><c>S </c><c>   3</c></rc>
    <rc><c>S </c><c>   3</c></rc>
    <rc><c>S </c><c>   3</c></rc>
    <rc><c>S </c><c>   3</c></rc>
    <rc><c>S </c><c>   3</c></rc>
    <rc><c>S </c><c>   3</c></rc>
    <rc><c>S </c><c>   3</c></rc>
    <rc><c>S </c><c>   3</c></rc>
    <rc><c>S </c><c>   3</c></rc>
    <rc><c>S </c><c>   3</c></rc>
    <rc><c>S </c><c>   3</c></rc>
    <rc><c>S </c><c>   3</c></rc>
    <rc><c>S </c><c>   3</c></rc>
    <rc><c>S </c><c>   3</c></rc>
    <rc><c>S </c><c>   3</c></rc>
    <rc><c>S </c><c>   3</c></rc>
    <rc><c>S </c><c>   3</c></rc>
    <rc><c>S </c><c>   3</c></rc>
    <rc><c>S </c><c>   3</c></rc>
    <rc><c>S </c><c>   3</c></rc>
    <rc><c>S </c><c>   3</c></rc>
    <rc><c>S </c><c>   3</c></rc>
    <rc><c>S </c><c>   3</c></rc>
    <rc><c>S </c><c>   3</c></rc>
    <rc><c>S </c><c>   3</c></rc>
    <rc><c>S </c><c>   3</c></rc>
    <rc><c>S </c><c>   3</c></rc>
    <rc><c>O </c><c>   4</c></rc>
    <rc><c>O </c><c>   4</c></rc>
    <rc><c>O </c><c>   4</c></rc>
    <rc><c>O </c><c>   4</c></rc>
    <rc><c>O </c><c>   4</c></rc>
    <rc><c>O </c><c>   4</c></rc>
    <rc><c>O </c><c>   4</c></rc>
    <rc><c>O </c><c>   4</c></rc>
    <rc><c>O </c><c>   4</c></rc>
    <rc><c>O </c><c>   4</c></rc>
    <rc><c>O </c><c>   4</c></rc>
    <rc><c>O </c><c>   4</c></rc>
    <rc><c>O </c><c>   4</c></rc>
    <rc><c>O </c><c>   4</c></rc>
    <rc><c>O </c><c>   4</c></rc>
    <rc><c>O </c><c>   4</c></rc>
    <rc><c>O </c><c>   4</c></rc>
    <rc><c>O </c><c>   4</c></rc>
    <rc><c>O </c><c>   4</c></rc>
    <rc><c>O </c><c>   4</c></rc>
    <rc><c>O </c><c>   4</c></rc>
    <rc><c>O </c><c>   4</c></rc>
    <rc><c>O </c><c>   4</c></rc>
    <rc><c>O </c><c>   4</c></rc>
    <rc><c>O </c><c>   4</c></rc>
    <rc><c>O </c><c>   4</c></rc>
    <rc><c>O </c><c>   4</c></rc>
    <rc><c>O </c><c>   4</c></rc>
    <rc><c>O </c><c>   4</c></rc>
    <rc><c>O </c><c>   4</c></rc>
    <rc><c>O </c><c>   4</c></rc>
    <rc><c>O </c><c>   4</c></rc>
   </set>
  </array>
  <array name="atomtypes" >
   <dimension dim="1">type</dimension>
   <field type="int">atomspertype</field>
   <field type="string">element</field>
   <field>mass</field>
   <field>valence</field>
   <field type="string">pseudopotential</field>
   <set>
    <rc><c>  64</c><c>Li</c><c>      7.01000000</c><c>      3.00000000</c><c>  PAW_PBE Li_sv 10Sep2004               </c></rc>
    <rc><c>  32</c><c>Fe</c><c>     55.84700000</c><c>     14.00000000</c><c>  PAW_PBE Fe_pv 02Aug2007               </c></rc>
    <rc><c>  32</c><c>S </c><c>     32.06600000</c><c>      6.00000000</c><c>  PAW_PBE S 06Sep2000                   </c></rc>
    <rc><c>  32</c><c>O </c><c>     16.00000000</c><c>      6.00000000</c><c>  PAW_PBE O 08Apr2002                   </c></rc>
   </set>
  </array>
 </atominfo>
 <structure name="initialpos" >
  <crystal>
   <varray name="basis" >
    <v>      15.42482202       0.00000000       0.00000000 </v>
    <v>       0.00000000      11.21024242       0.00000000 </v>
    <v>       0.00000000       0.00000000      11.27702698 </v>
   </varray>
   <i name="volume">   1949.97833107 </i>
   <varray name="rec_basis" >
    <v>       0.06483057       0.00000000       0.00000000 </v>
    <v>       0.00000000       0.08920414       0.00000000 </v>
    <v>       0.00000000       0.00000000       0.08867585 </v>
   </varray>
  </crystal>
  <varray name="positions" >
   <v>       0.12500000       0.25089204       0.46751010 </v>
   <v>       0.62500000       0.25000000       0.46751010 </v>
   <v>       0.12500000       0.75000000       0.46751010 </v>
   <v>       0.62500000       0.75000000       0.46751010 </v>
   <v>       0.12500000       0.25000000       0.96751010 </v>
   <v>       0.62500000       0.25000000       0.96751010 </v>
   <v>       0.12500000       0.75000000       0.96751010 </v>
   <v>       0.62500000       0.75000000       0.96751010 </v>
   <v>       0.12500000       0.00000000       0.28248990 </v>
   <v>       0.62500000       0.00000000       0.28248990 </v>
   <v>       0.12500000       0.50000000       0.28248990 </v>
   <v>       0.62500000       0.50000000       0.28248990 </v>
   <v>       0.12500000       0.00000000       0.78248990 </v>
   <v>       0.62500000       0.00000000       0.78248990 </v>
   <v>       0.12500000       0.50000000       0.78248990 </v>
   <v>       0.62500000       0.50000000       0.78248990 </v>
   <v>       0.37500000       0.25000000       0.03248990 </v>
   <v>       0.87500000       0.25000000       0.03248990 </v>
   <v>       0.37500000       0.75000000       0.03248990 </v>
   <v>       0.87500000       0.75000000       0.03248990 </v>
   <v>       0.37500000       0.25000000       0.53248990 </v>
   <v>       0.87500000       0.25000000       0.53248990 </v>
   <v>       0.37500000       0.75000000       0.53248990 </v>
   <v>       0.87500000       0.75000000       0.53248990 </v>
   <v>       0.37500000       0.00000000       0.21751010 </v>
   <v>       0.87500000       0.00000000       0.21751010 </v>
   <v>       0.37500000       0.50000000       0.21751010 </v>
   <v>       0.87500000       0.50000000       0.21751010 </v>
   <v>       0.37500000       0.00000000       0.71751010 </v>
   <v>       0.87500000       0.00000000       0.71751010 </v>
   <v>       0.37500000       0.50000000       0.71751010 </v>
   <v>       0.87500000       0.50000000       0.71751010 </v>
   <v>       0.26924068       0.37500000       0.37500000 </v>
   <v>       0.76924068       0.37500000       0.37500000 </v>
   <v>       0.26924068       0.87500000       0.37500000 </v>
   <v>       0.76924068       0.87500000       0.37500000 </v>
   <v>       0.26924068       0.37500000       0.87500000 </v>
   <v>       0.76924068       0.37500000       0.87500000 </v>
   <v>       0.26924068       0.87500000       0.87500000 </v>
   <v>       0.76924068       0.87500000       0.87500000 </v>
   <v>       0.23075932       0.12500000       0.12500000 </v>
   <v>       0.73075932       0.12500000       0.12500000 </v>
   <v>       0.23075932       0.62500000       0.12500000 </v>
   <v>       0.73075932       0.62500000       0.12500000 </v>
   <v>       0.23075932       0.12500000       0.62500000 </v>
   <v>       0.73075932       0.12500000       0.62500000 </v>
   <v>       0.23075932       0.62500000       0.62500000 </v>
   <v>       0.73075932       0.62500000       0.62500000 </v>
   <v>       0.01924068       0.37500000       0.12500000 </v>
   <v>       0.51924068       0.37500000       0.12500000 </v>
   <v>       0.01924068       0.87500000       0.12500000 </v>
   <v>       0.51924068       0.87500000       0.12500000 </v>
   <v>       0.01924068       0.37500000       0.62500000 </v>
   <v>       0.51924068       0.37500000       0.62500000 </v>
   <v>       0.01924068       0.87500000       0.62500000 </v>
   <v>       0.51924068       0.87500000       0.62500000 </v>
   <v>       0.48075932       0.12500000       0.37500000 </v>
   <v>       0.98075932       0.12500000       0.37500000 </v>
   <v>       0.48075932       0.62500000       0.37500000 </v>
   <v>       0.98075932       0.62500000       0.37500000 </v>
   <v>       0.48075932       0.12500000       0.87500000 </v>
   <v>       0.98075932       0.12500000       0.87500000 </v>
   <v>       0.48075932       0.62500000       0.87500000 </v>
   <v>       0.98075932       0.62500000       0.87500000 </v>
   <v>       0.48606648       0.37500000       0.37500000 </v>
   <v>       0.98606648       0.37500000       0.37500000 </v>
   <v>       0.48606648       0.87500000       0.37500000 </v>
   <v>       0.98606648       0.87500000       0.37500000 </v>
   <v>       0.48606648       0.37500000       0.87500000 </v>
   <v>       0.98606648       0.37500000       0.87500000 </v>
   <v>       0.48606648       0.87500000       0.87500000 </v>
   <v>       0.98606648       0.87500000       0.87500000 </v>
   <v>       0.01393352       0.12500000       0.12500000 </v>
   <v>       0.51393352       0.12500000       0.12500000 </v>
   <v>       0.01393352       0.62500000       0.12500000 </v>
   <v>       0.51393352       0.62500000       0.12500000 </v>
   <v>       0.01393352       0.12500000       0.62500000 </v>
   <v>       0.51393352       0.12500000       0.62500000 </v>
   <v>       0.01393352       0.62500000       0.62500000 </v>
   <v>       0.51393352       0.62500000       0.62500000 </v>
   <v>       0.23606648       0.37500000       0.12500000 </v>
   <v>       0.73606648       0.37500000       0.12500000 </v>
   <v>       0.23606648       0.87500000       0.12500000 </v>
   <v>       0.73606648       0.87500000       0.12500000 </v>
   <v>       0.23606648       0.37500000       0.62500000 </v>
   <v>       0.73606648       0.37500000       0.62500000 </v>
   <v>       0.23606648       0.87500000       0.62500000 </v>
   <v>       0.73606648       0.87500000       0.62500000 </v>
   <v>       0.26393352       0.12500000       0.37500000 </v>
   <v>       0.76393352       0.12500000       0.37500000 </v>
   <v>       0.26393352       0.62500000       0.37500000 </v>
   <v>       0.76393352       0.62500000       0.37500000 </v>
   <v>       0.26393352       0.12500000       0.87500000 </v>
   <v>       0.76393352       0.12500000       0.87500000 </v>
   <v>       0.26393352       0.62500000       0.87500000 </v>
   <v>       0.76393352       0.62500000       0.87500000 </v>
   <v>       0.12500000       0.00000000       0.50106053 </v>
   <v>       0.62500000       0.00000000       0.50106053 </v>
   <v>       0.12500000       0.50000000       0.50106053 </v>
   <v>       0.62500000       0.50000000       0.50106053 </v>
   <v>       0.12500000       0.00000000       0.00106053 </v>
   <v>       0.62500000       0.00000000       0.00106053 </v>
   <v>       0.12500000       0.50000000       0.00106053 </v>
   <v>       0.62500000       0.50000000       0.00106053 </v>
   <v>       0.12500000       0.25000000       0.24893947 </v>
   <v>       0.62500000       0.25000000       0.24893947 </v>
   <v>       0.12500000       0.75000000       0.24893947 </v>
   <v>       0.62500000       0.75000000       0.24893947 </v>
   <v>       0.12500000       0.25000000       0.74893947 </v>
   <v>       0.62500000       0.25000000       0.74893947 </v>
   <v>       0.12500000       0.75000000       0.74893947 </v>
   <v>       0.62500000       0.75000000       0.74893947 </v>
   <v>       0.37500000       0.00000000       0.99893947 </v>
   <v>       0.87500000       0.00000000       0.99893947 </v>
   <v>       0.37500000       0.50000000       0.99893947 </v>
   <v>       0.87500000       0.50000000       0.99893947 </v>
   <v>       0.37500000       0.00000000       0.49893947 </v>
   <v>       0.87500000       0.00000000       0.49893947 </v>
   <v>       0.37500000       0.50000000       0.49893947 </v>
   <v>       0.87500000       0.50000000       0.49893947 </v>
   <v>       0.37500000       0.25000000       0.25106053 </v>
   <v>       0.87500000       0.25000000       0.25106053 </v>
   <v>       0.37500000       0.75000000       0.25106053 </v>
   <v>       0.87500000       0.75000000       0.25106053 </v>
   <v>       0.37500000       0.25000000       0.75106053 </v>
   <v>       0.87500000       0.25000000       0.75106053 </v>
   <v>       0.37500000       0.75000000       0.75106053 </v>
   <v>       0.87500000       0.75000000       0.75106053 </v>
   <v>       0.00000000       0.25000000       0.00000000 </v>
   <v>       0.50000000       0.25000000       0.00000000 </v>
   <v>       0.00000000       0.75000000       0.00000000 </v>
   <v>       0.50000000       0.75000000       0.00000000 </v>
   <v>       0.00000000       0.25000000       0.50000000 </v>
   <v>       0.50000000       0.25000000       0.50000000 </v>
   <v>       0.00000000       0.75000000       0.50000000 </v>
   <v>       0.50000000       0.75000000       0.50000000 </v>
   <v>       0.00000000       0.00000000       0.25000000 </v>
   <v>       0.50000000       0.00000000       0.25000000 </v>
   <v>       0.00000000       0.50000000       0.25000000 </v>
   <v>       0.50000000       0.50000000       0.25000000 </v>
   <v>       0.00000000       0.00000000       0.75000000 </v>
   <v>       0.50000000       0.00000000       0.75000000 </v>
   <v>       0.00000000       0.50000000       0.75000000 </v>
   <v>       0.50000000       0.50000000       0.75000000 </v>
   <v>       0.25000000       0.25000000       0.00000000 </v>
   <v>       0.75000000       0.25000000       0.00000000 </v>
   <v>       0.25000000       0.75000000       0.00000000 </v>
   <v>       0.75000000       0.75000000       0.00000000 </v>
   <v>       0.25000000       0.25000000       0.50000000 </v>
   <v>       0.75000000       0.25000000       0.50000000 </v>
   <v>       0.25000000       0.75000000       0.50000000 </v>
   <v>       0.75000000       0.75000000       0.50000000 </v>
   <v>       0.25000000       0.00000000       0.25000000 </v>
   <v>       0.75000000       0.00000000       0.25000000 </v>
   <v>       0.25000000       0.50000000       0.25000000 </v>
   <v>       0.75000000       0.50000000       0.25000000 </v>
   <v>       0.25000000       0.00000000       0.75000000 </v>
   <v>       0.75000000       0.00000000       0.75000000 </v>
   <v>       0.25000000       0.50000000       0.75000000 </v>
   <v>       0.75000000       0.50000000       0.75000000 </v>
  </varray>
 </structure>
 <calculation>
  <scstep>
   <time name="dav">  353.04  360.43</time>
   <time name="total">  355.39  362.83</time>
   <energy>
    <i name="alphaZ">   2574.33730679 </i>
    <i name="ewald"> -67378.53620541 </i>
    <i name="hartreedc"> -36045.54254935 </i>
    <i name="XCdc">   4397.16328272 </i>
    <i name="pawpsdc"> 108725.82191982 </i>
    <i name="pawaedc">-112342.66432617 </i>
    <i name="eentropy">     -0.02978032 </i>
    <i name="bandstr">   -780.40641757 </i>
    <i name="atom"> 114309.28505226 </i>
    <i name="e_fr_energy">  13459.42828277 </i>
    <i name="e_wo_entrp">  13459.45806309 </i>
    <i name="e_0_energy">  13459.44317293 </i>
   </energy>
  </scstep>
  <scstep>
   <time name="dav">  341.91  347.73</time>
   <time name="total">  341.91  347.73</time>
   <energy>
    <i name="e_fr_energy">   1408.37286497 </i>
    <i name="e_wo_entrp">   1408.44272503 </i>
    <i name="e_0_energy">   1408.40779500 </i>
   </energy>
  </scstep>
  <scstep>
   <time name="dav">  372.13  379.17</time>
   <time name="total">  372.13  379.17</time>
   <energy>
    <i name="e_fr_energy">   -527.66039850 </i>
    <i name="e_wo_entrp">   -527.66039850 </i>
    <i name="e_0_energy">   -527.66039850 </i>
   </energy>
  </scstep>
  <scstep>
   <time name="dav">  426.63  434.89</time>
   <time name="total">  426.64  434.89</time>
   <energy>
    <i name="e_fr_energy">   -788.90366631 </i>
    <i name="e_wo_entrp">   -788.90366631 </i>
    <i name="e_0_energy">   -788.90366631 </i>
   </energy>
  </scstep>
  <scstep>
   <time name="dav">  532.73  542.39</time>
   <time name="total">  541.13  550.95</time>
   <energy>
    <i name="e_fr_energy">   -820.41134009 </i>
    <i name="e_wo_entrp">   -820.41134009 </i>
    <i name="e_0_energy">   -820.41134009 </i>
   </energy>
  </scstep>
  <scstep>
   <time name="dav">  439.31  447.06</time>
   <time name="total">  450.03  458.07</time>
   <energy>
    <i name="e_fr_energy">   -821.84935219 </i>
    <i name="e_wo_entrp">   -821.84935219 </i>
    <i name="e_0_energy">   -821.84935219 </i>
   </energy>
  </scstep>
  <scstep>
   <time name="dav">  498.84  507.06</time>
   <time name="total">  509.54  517.96</time>
   <energy>
    <i name="e_fr_energy">   -821.92605189 </i>
    <i name="e_wo_entrp">   -821.92605189 </i>
    <i name="e_0_energy">   -821.92605189 </i>
   </energy>
  </scstep>
  <scstep>
   <time name="dav">  473.03  481.48</time>
   <time name="total">  483.77  492.41</time>
   <energy>
    <i name="e_fr_energy">   -821.92628009 </i>
    <i name="e_wo_entrp">   -821.92628009 </i>
    <i name="e_0_energy">   -821.92628009 </i>
   </energy>
  </scstep>
  <scstep>
   <time name="dav">  499.13  508.68</time>
   <time name="total">  509.87  519.61</time>
   <energy>
    <i name="e_fr_energy">   -821.92537669 </i>
    <i name="e_wo_entrp">   -821.92537669 </i>
    <i name="e_0_energy">   -821.92537669 </i>
   </energy>
  </scstep>
  <scstep>
   <time name="dav">  486.78  495.65</time>
   <time name="total">  497.48  506.57</time>
   <energy>
    <i name="e_fr_energy">   -821.92529352 </i>
    <i name="e_wo_entrp">   -821.92529352 </i>
    <i name="e_0_energy">   -821.92529352 </i>
   </energy>
  </scstep>
  <scstep>
   <time name="dav">  482.21  490.11</time>
   <time name="total">  492.96  501.11</time>
   <energy>
    <i name="e_fr_energy">   -821.92268344 </i>
    <i name="e_wo_entrp">   -821.92268344 </i>
    <i name="e_0_energy">   -821.92268344 </i>
   </energy>
  </scstep>
  <scstep>
   <time name="dav">  446.53  455.07</time>
   <time name="total">  457.23  465.98</time>
   <energy>
    <i name="e_fr_energy">   -821.92181732 </i>
    <i name="e_wo_entrp">   -821.92181732 </i>
    <i name="e_0_energy">   -821.92181732 </i>
   </energy>
  </scstep>
  <scstep>
   <time name="dav">  487.60  496.29</time>
   <time name="total">  498.36  507.29</time>
   <energy>
    <i name="e_fr_energy">   -821.92101206 </i>
    <i name="e_wo_entrp">   -821.92101206 </i>
    <i name="e_0_energy">   -821.92101206 </i>
   </energy>
  </scstep>
  <scstep>
   <time name="dav">  447.20  455.61</time>
   <time name="total">  457.97  466.59</time>
   <energy>
    <i name="e_fr_energy">   -821.92076245 </i>
    <i name="e_wo_entrp">   -821.92076245 </i>
    <i name="e_0_energy">   -821.92076245 </i>
   </energy>
  </scstep>
  <scstep>
   <time name="dav">  433.49  441.23</time>
   <time name="total">  444.22  452.18</time>
   <energy>
    <i name="e_fr_energy">   -821.92053276 </i>
    <i name="e_wo_entrp">   -821.92053276 </i>
    <i name="e_0_energy">   -821.92053276 </i>
   </energy>
  </scstep>
  <scstep>
   <time name="dav">  467.07  475.55</time>
   <time name="total">  477.92  486.60</time>
   <energy>
    <i name="e_fr_energy">   -821.92037506 </i>
    <i name="e_wo_entrp">   -821.92037506 </i>
    <i name="e_0_energy">   -821.92037506 </i>
   </energy>
  </scstep>
  <scstep>
   <time name="dav">  470.47  479.48</time>
   <time name="total">  481.22  490.47</time>
   <energy>
    <i name="e_fr_energy">   -821.92035777 </i>
    <i name="e_wo_entrp">   -821.92035777 </i>
    <i name="e_0_energy">   -821.92035777 </i>
   </energy>
  </scstep>
  <scstep>
   <time name="dav">  401.87  409.73</time>
   <time name="total">  412.70  420.73</time>
   <energy>
    <i name="e_fr_energy">   -821.92035907 </i>
    <i name="e_wo_entrp">   -821.92035907 </i>
    <i name="e_0_energy">   -821.92035907 </i>
   </energy>
  </scstep>
  <scstep>
   <time name="dav">  265.92  271.30</time>
   <time name="total">  268.24  273.65</time>
   <energy>
    <i name="alphaZ">   2574.33730679 </i>
    <i name="ewald"> -67378.53620541 </i>
    <i name="hartreedc"> -36045.64014025 </i>
    <i name="XCdc">   4397.17004355 </i>
    <i name="pawpsdc"> 108722.55409702 </i>
    <i name="pawaedc">-112339.29050302 </i>
    <i name="eentropy">     -0.00000000 </i>
    <i name="bandstr"> -15061.80001029 </i>
    <i name="atom"> 114309.28505226 </i>
    <i name="e_fr_energy">   -821.92035934 </i>
    <i name="e_wo_entrp">   -821.92035934 </i>
    <i name="e_0_energy">   -821.92035934 </i>
   </energy>
  </scstep>
  <structure>
   <crystal>
    <varray name="basis" >
     <v>      15.42482202       0.00000000       0.00000000 </v>
     <v>       0.00000000      11.21024242       0.00000000 </v>
     <v>       0.00000000       0.00000000      11.27702698 </v>
    </varray>
    <i name="volume">   1949.97833107 </i>
    <varray name="rec_basis" >
     <v>       0.06483057       0.00000000       0.00000000 </v>
     <v>       0.00000000       0.08920414       0.00000000 </v>
     <v>       0.00000000       0.00000000       0.08867585 </v>
    </varray>
   </crystal>
   <varray name="positions" >
    <v>       0.12500000       0.25089204       0.46751010 </v>
    <v>       0.62500000       0.25000000       0.46751010 </v>
    <v>       0.12500000       0.75000000       0.46751010 </v>
    <v>       0.62500000       0.75000000       0.46751010 </v>
    <v>       0.12500000       0.25000000       0.96751010 </v>
    <v>       0.62500000       0.25000000       0.96751010 </v>
    <v>       0.12500000       0.75000000       0.96751010 </v>
    <v>       0.62500000       0.75000000       0.96751010 </v>
    <v>       0.12500000       0.00000000       0.28248990 </v>
    <v>       0.62500000       0.00000000       0.28248990 </v>
    <v>       0.12500000       0.50000000       0.28248990 </v>
    <v>       0.62500000       0.50000000       0.28248990 </v>
    <v>       0.12500000       0.00000000       0.78248990 </v>
    <v>       0.62500000       0.00000000       0.78248990 </v>
    <v>       0.12500000       0.50000000       0.78248990 </v>
    <v>       0.62500000       0.50000000       0.78248990 </v>
    <v>       0.37500000       0.25000000       0.03248990 </v>
    <v>       0.87500000       0.25000000       0.03248990 </v>
    <v>       0.37500000       0.75000000       0.03248990 </v>
    <v>       0.87500000       0.75000000       0.03248990 </v>
    <v>       0.37500000       0.25000000       0.53248990 </v>
    <v>       0.87500000       0.25000000       0.53248990 </v>
    <v>       0.37500000       0.75000000       0.53248990 </v>
    <v>       0.87500000       0.75000000       0.53248990 </v>
    <v>       0.37500000       0.00000000       0.21751010 </v>
    <v>       0.87500000       0.00000000       0.21751010 </v>
    <v>       0.37500000       0.50000000       0.21751010 </v>
    <v>       0.87500000       0.50000000       0.21751010 </v>
    <v>       0.37500000       0.00000000       0.71751010 </v>
    <v>       0.87500000       0.00000000       0.71751010 </v>
    <v>       0.37500000       0.50000000       0.71751010 </v>
    <v>       0.87500000       0.50000000       0.71751010 </v>
    <v>       0.26924068       0.37500000       0.37500000 </v>
    <v>       0.76924068       0.37500000       0.37500000 </v>
    <v>       0.26924068       0.87500000       0.37500000 </v>
    <v>       0.76924068       0.87500000       0.37500000 </v>
    <v>       0.26924068       0.37500000       0.87500000 </v>
    <v>       0.76924068       0.37500000       0.87500000 </v>
    <v>       0.26924068       0.87500000       0.87500000 </v>
    <v>       0.76924068       0.87500000       0.87500000 </v>
    <v>       0.23075932       0.12500000       0.12500000 </v>
    <v>       0.73075932       0.12500000       0.12500000 </v>
    <v>       0.23075932       0.62500000       0.12500000 </v>
    <v>       0.73075932       0.62500000       0.12500000 </v>
    <v>       0.23075932       0.12500000       0.62500000 </v>
    <v>       0.73075932       0.12500000       0.62500000 </v>
    <v>       0.23075932       0.62500000       0.62500000 </v>
    <v>       0.73075932       0.62500000       0.62500000 </v>
    <v>       0.01924068       0.37500000       0.12500000 </v>
    <v>       0.51924068       0.37500000       0.12500000 </v>
    <v>       0.01924068       0.87500000       0.12500000 </v>
    <v>       0.51924068       0.87500000       0.12500000 </v>
    <v>       0.01924068       0.37500000       0.62500000 </v>
    <v>       0.51924068       0.37500000       0.62500000 </v>
    <v>       0.01924068       0.87500000       0.62500000 </v>
    <v>       0.51924068       0.87500000       0.62500000 </v>
    <v>       0.48075932       0.12500000       0.37500000 </v>
    <v>       0.98075932       0.12500000       0.37500000 </v>
    <v>       0.48075932       0.62500000       0.37500000 </v>
    <v>       0.98075932       0.62500000       0.37500000 </v>
    <v>       0.48075932       0.12500000       0.87500000 </v>
    <v>       0.98075932       0.12500000       0.87500000 </v>
    <v>       0.48075932       0.62500000       0.87500000 </v>
    <v>       0.98075932       0.62500000       0.87500000 </v>
    <v>       0.48606648       0.37500000       0.37500000 </v>
    <v>       0.98606648       0.37500000       0.37500000 </v>
    <v>       0.48606648       0.87500000       0.37500000 </v>
    <v>       0.98606648       0.87500000       0.37500000 </v>
    <v>       0.48606648       0.37500000       0.87500000 </v>
    <v>       0.98606648       0.37500000       0.87500000 </v>
    <v>       0.48606648       0.87500000       0.87500000 </v>
    <v>       0.98606648       0.87500000       0.87500000 </v>
    <v>       0.01393352       0.12500000       0.12500000 </v>
    <v>       0.51393352       0.12500000       0.12500000 </v>
    <v>       0.01393352       0.62500000       0.12500000 </v>
    <v>       0.51393352       0.62500000       0.12500000 </v>
    <v>       0.01393352       0.12500000       0.62500000 </v>
    <v>       0.51393352       0.12500000       0.62500000 </v>
    <v>       0.01393352       0.62500000       0.62500000 </v>
    <v>       0.51393352       0.62500000       0.62500000 </v>
    <v>       0.23606648       0.37500000       0.12500000 </v>
    <v>       0.73606648       0.37500000       0.12500000 </v>
    <v>       0.23606648       0.87500000       0.12500000 </v>
    <v>       0.73606648       0.87500000       0.12500000 </v>
    <v>       0.23606648       0.37500000       0.62500000 </v>
    <v>       0.73606648       0.37500000       0.62500000 </v>
    <v>       0.23606648       0.87500000       0.62500000 </v>
    <v>       0.73606648       0.87500000       0.62500000 </v>
    <v>       0.26393352       0.12500000       0.37500000 </v>
    <v>       0.76393352       0.12500000       0.37500000 </v>
    <v>       0.26393352       0.62500000       0.37500000 </v>
    <v>       0.76393352       0.62500000       0.37500000 </v>
    <v>       0.26393352       0.12500000       0.87500000 </v>
    <v>       0.76393352       0.12500000       0.87500000 </v>
    <v>       0.26393352       0.62500000       0.87500000 </v>
    <v>       0.76393352       0.62500000       0.87500000 </v>
    <v>       0.12500000       0.00000000       0.50106053 </v>
    <v>       0.62500000       0.00000000       0.50106053 </v>
    <v>       0.12500000       0.50000000       0.50106053 </v>
    <v>       0.62500000       0.50000000       0.50106053 </v>
    <v>       0.12500000       0.00000000       0.00106053 </v>
    <v>       0.62500000       0.00000000       0.00106053 </v>
    <v>       0.12500000       0.50000000       0.00106053 </v>
    <v>       0.62500000       0.50000000       0.00106053 </v>
    <v>       0.12500000       0.25000000       0.24893947 </v>
    <v>       0.62500000       0.25000000       0.24893947 </v>
    <v>       0.12500000       0.75000000       0.24893947 </v>
    <v>       0.62500000       0.75000000       0.24893947 </v>
    <v>       0.12500000       0.25000000       0.74893947 </v>
    <v>       0.62500000       0.25000000       0.74893947 </v>
    <v>       0.12500000       0.75000000       0.74893947 </v>
    <v>       0.62500000       0.75000000       0.74893947 </v>
    <v>       0.37500000       0.00000000       0.99893947 </v>
    <v>       0.87500000       0.00000000       0.99893947 </v>
    <v>       0.37500000       0.50000000       0.99893947 </v>
    <v>       0.87500000       0.50000000       0.99893947 </v>
    <v>       0.37500000       0.00000000       0.49893947 </v>
    <v>       0.87500000       0.00000000       0.49893947 </v>
    <v>       0.37500000       0.50000000       0.49893947 </v>
    <v>       0.87500000       0.50000000       0.49893947 </v>
    <v>       0.37500000       0.25000000       0.25106053 </v>
    <v>       0.87500000       0.25000000       0.25106053 </v>
    <v>       0.37500000       0.75000000       0.25106053 </v>
    <v>       0.87500000       0.75000000       0.25106053 </v>
    <v>       0.37500000       0.25000000       0.75106053 </v>
    <v>       0.87500000       0.25000000       0.75106053 </v>
    <v>       0.37500000       0.75000000       0.75106053 </v>
    <v>       0.87500000       0.75000000       0.75106053 </v>
    <v>       0.00000000       0.25000000       0.00000000 </v>
    <v>       0.50000000       0.25000000       0.00000000 </v>
    <v>       0.00000000       0.75000000       0.00000000 </v>
    <v>       0.50000000       0.75000000       0.00000000 </v>
    <v>       0.00000000       0.25000000       0.50000000 </v>
    <v>       0.50000000       0.25000000       0.50000000 </v>
    <v>       0.00000000       0.75000000       0.50000000 </v>
    <v>       0.50000000       0.75000000       0.50000000 </v>
    <v>       0.00000000       0.00000000       0.25000000 </v>
    <v>       0.50000000       0.00000000       0.25000000 </v>
    <v>       0.00000000       0.50000000       0.25000000 </v>
    <v>       0.50000000       0.50000000       0.25000000 </v>
    <v>       0.00000000       0.00000000       0.75000000 </v>
    <v>       0.50000000       0.00000000       0.75000000 </v>
    <v>       0.00000000       0.50000000       0.75000000 </v>
    <v>       0.50000000       0.50000000       0.75000000 </v>
    <v>       0.25000000       0.25000000       0.00000000 </v>
    <v>       0.75000000       0.25000000       0.00000000 </v>
    <v>       0.25000000       0.75000000       0.00000000 </v>
    <v>       0.75000000       0.75000000       0.00000000 </v>
    <v>       0.25000000       0.25000000       0.50000000 </v>
    <v>       0.75000000       0.25000000       0.50000000 </v>
    <v>       0.25000000       0.75000000       0.50000000 </v>
    <v>       0.75000000       0.75000000       0.50000000 </v>
    <v>       0.25000000       0.00000000       0.25000000 </v>
    <v>       0.75000000       0.00000000       0.25000000 </v>
    <v>       0.25000000       0.50000000       0.25000000 </v>
    <v>       0.75000000       0.50000000       0.25000000 </v>
    <v>       0.25000000       0.00000000       0.75000000 </v>
    <v>       0.75000000       0.00000000       0.75000000 </v>
    <v>       0.25000000       0.50000000       0.75000000 </v>
    <v>       0.75000000       0.50000000       0.75000000 </v>
   </varray>
  </structure>
  <varray name="forces" >
   <v>       0.00188017      -0.01341383      -0.00013824 </v>
   <v>      -0.00001155      -0.00003661      -0.00011920 </v>
   <v>       0.00003238       0.00265141      -0.00011764 </v>
   <v>      -0.00000715       0.00003985      -0.00011412 </v>
   <v>       0.00004354       0.00013816      -0.00011187 </v>
   <v>      -0.00000929      -0.00001111      -0.00011278 </v>
   <v>      -0.00001658      -0.00006672      -0.00011133 </v>
   <v>      -0.00001359       0.00001324      -0.00011270 </v>
   <v>       0.00001759       0.00043082       0.00158951 </v>
   <v>      -0.00000346       0.00000060       0.00012995 </v>
   <v>       0.00001557       0.00043268      -0.00138194 </v>
   <v>      -0.00000939      -0.00000396       0.00010106 </v>
   <v>      -0.00002083       0.00002092      -0.00064388 </v>
   <v>      -0.00000037      -0.00000327       0.00011031 </v>
   <v>      -0.00002045       0.00002120       0.00087266 </v>
   <v>      -0.00000025      -0.00000604       0.00012332 </v>
   <v>      -0.00000504      -0.00002536       0.00015200 </v>
   <v>      -0.00000926      -0.00002674       0.00007347 </v>
   <v>       0.00000505       0.00003404       0.00009854 </v>
   <v>       0.00000027       0.00003039       0.00013836 </v>
   <v>       0.00005335      -0.00018883      -0.00000787 </v>
   <v>       0.00007439      -0.00019190       0.00023718 </v>
   <v>      -0.00002895       0.00016539       0.00015164 </v>
   <v>      -0.00002945       0.00016660       0.00008002 </v>
   <v>      -0.00010975       0.00000202      -0.00010049 </v>
   <v>       0.00012158      -0.00003016      -0.00007003 </v>
   <v>       0.00011447      -0.00003608      -0.00015879 </v>
   <v>      -0.00010337       0.00000444      -0.00012518 </v>
   <v>      -0.00013017      -0.00003240      -0.00019103 </v>
   <v>       0.00009423       0.00000598      -0.00016745 </v>
   <v>       0.00009215       0.00000638      -0.00006609 </v>
   <v>      -0.00012593      -0.00003506      -0.00003663 </v>
   <v>       0.00301290       0.00034646      -0.00131582 </v>
   <v>      -0.00017046      -0.00006382      -0.00006290 </v>
   <v>      -0.00066734       0.00050841       0.00034014 </v>
   <v>      -0.00002407       0.00008181       0.00004819 </v>
   <v>      -0.00012977      -0.00012430       0.00009548 </v>
   <v>      -0.00007132      -0.00004639      -0.00002242 </v>
   <v>      -0.00002860       0.00011464      -0.00009443 </v>
   <v>      -0.00008977       0.00004207       0.00001028 </v>
   <v>       0.00027237      -0.00013229       0.00010613 </v>
   <v>       0.00005571      -0.00004063      -0.00001553 </v>
   <v>       0.00002901       0.00010425      -0.00007547 </v>
   <v>       0.00007382       0.00003368       0.00000927 </v>
   <v>      -0.00248661       0.00025436      -0.00232541 </v>
   <v>       0.00011880      -0.00006784      -0.00003019 </v>
   <v>       0.00095269       0.00067722       0.00064280 </v>
   <v>       0.00001910       0.00006881       0.00004896 </v>
   <v>       0.00012160      -0.00014282      -0.00010451 </v>
   <v>      -0.00009840      -0.00004305       0.00001618 </v>
   <v>      -0.00012712       0.00010629       0.00008305 </v>
   <v>      -0.00008193       0.00003107      -0.00001108 </v>
   <v>      -0.00265657       0.00023863       0.00233651 </v>
   <v>      -0.00003621      -0.00006123       0.00003475 </v>
   <v>       0.00079615       0.00068254      -0.00063721 </v>
   <v>      -0.00013740       0.00007072      -0.00004387 </v>
   <v>      -0.00001780      -0.00007036       0.00005666 </v>
   <v>       0.00314599       0.00036297       0.00130772 </v>
   <v>       0.00012879       0.00007200      -0.00005396 </v>
   <v>      -0.00051945       0.00050457      -0.00034821 </v>
   <v>       0.00007790      -0.00004266       0.00002355 </v>
   <v>       0.00003100      -0.00012203      -0.00009686 </v>
   <v>       0.00006269       0.00004430      -0.00001087 </v>
   <v>       0.00012390       0.00011216       0.00009308 </v>
   <v>       0.00001295      -0.00019267      -0.00012207 </v>
   <v>      -0.00616226       0.00045801      -0.00263516 </v>
   <v>      -0.00007620       0.00017077       0.00009966 </v>
   <v>       0.00111697       0.00104966       0.00059148 </v>
   <v>       0.00001616      -0.00004642       0.00002312 </v>
   <v>       0.00002429      -0.00029671       0.00023230 </v>
   <v>      -0.00003797       0.00004934      -0.00000913 </v>
   <v>      -0.00000176       0.00031104      -0.00025644 </v>
   <v>      -0.00023669      -0.00028184       0.00030852 </v>
   <v>      -0.00003146      -0.00004552       0.00002255 </v>
   <v>       0.00010650       0.00034265      -0.00030768 </v>
   <v>       0.00001600       0.00005272      -0.00001586 </v>
   <v>       0.00468248      -0.00011152      -0.00370792 </v>
   <v>      -0.00007456      -0.00016838      -0.00010881 </v>
   <v>      -0.00162974       0.00123238       0.00097276 </v>
   <v>       0.00005687       0.00015179       0.00007840 </v>
   <v>      -0.00026169      -0.00029549      -0.00030524 </v>
   <v>      -0.00005032      -0.00004471      -0.00002365 </v>
   <v>       0.00009518       0.00034343       0.00031733 </v>
   <v>       0.00000602       0.00005043       0.00001809 </v>
   <v>       0.00470158      -0.00015829       0.00371932 </v>
   <v>      -0.00008936      -0.00016446       0.00010983 </v>
   <v>      -0.00164103       0.00123135      -0.00096562 </v>
   <v>       0.00004356       0.00015145      -0.00007904 </v>
   <v>      -0.00611958       0.00049462       0.00262257 </v>
   <v>       0.00003696      -0.00019898       0.00012071 </v>
   <v>       0.00114716       0.00105480      -0.00060269 </v>
   <v>      -0.00005521       0.00017217      -0.00010531 </v>
   <v>       0.00003880      -0.00028992      -0.00022916 </v>
   <v>       0.00002833      -0.00004387      -0.00001576 </v>
   <v>       0.00000364       0.00031207       0.00025361 </v>
   <v>      -0.00003182       0.00005022       0.00001077 </v>
   <v>       0.00022970      -0.00341173       0.00085005 </v>
   <v>       0.00002743       0.00000020       0.00001676 </v>
   <v>       0.00022967      -0.00330964      -0.00081226 </v>
   <v>       0.00002588       0.00000128       0.00000413 </v>
   <v>      -0.00003902       0.00014241       0.00009813 </v>
   <v>       0.00001799       0.00000066       0.00000681 </v>
   <v>      -0.00004031       0.00014699      -0.00007761 </v>
   <v>       0.00001485      -0.00000274       0.00000593 </v>
   <v>       0.00026115       0.00212959       0.00000833 </v>
   <v>       0.00003444       0.00003911      -0.00001501 </v>
   <v>      -0.00000381      -0.00084065      -0.00001038 </v>
   <v>       0.00001300      -0.00004414      -0.00001407 </v>
   <v>       0.00007936       0.00140780      -0.00000506 </v>
   <v>       0.00000719       0.00005347      -0.00000592 </v>
   <v>      -0.00016961      -0.00117136      -0.00001473 </v>
   <v>       0.00002014      -0.00005041      -0.00000734 </v>
   <v>       0.00009667      -0.00001127      -0.00001214 </v>
   <v>      -0.00007603       0.00001435       0.00001756 </v>
   <v>      -0.00007488       0.00001129      -0.00003628 </v>
   <v>       0.00009343      -0.00000506      -0.00000936 </v>
   <v>       0.00052010       0.00004189       0.00002388 </v>
   <v>      -0.00047084       0.00000305      -0.00003601 </v>
   <v>      -0.00047492       0.00000836       0.00001697 </v>
   <v>       0.00052159       0.00004881      -0.00004810 </v>
   <v>       0.00009699       0.00026295      -0.00002704 </v>
   <v>       0.00009401       0.00026383       0.00003945 </v>
   <v>      -0.00003673      -0.00022134       0.00002671 </v>
   <v>      -0.00003385      -0.00022989      -0.00001204 </v>
   <v>      -0.00006867       0.00020398      -0.00005005 </v>
   <v>      -0.00007229       0.00020233       0.00007535 </v>
   <v>       0.00006955      -0.00021357       0.00006396 </v>
   <v>       0.00007210      -0.00021611      -0.00003947 </v>
   <v>      -0.00001586      -0.00002428       0.00000295 </v>
   <v>       0.00000294       0.00005475      -0.00006541 </v>
   <v>      -0.00000932      -0.00009369       0.00007310 </v>
   <v>       0.00001768      -0.00005116       0.00004102 </v>
   <v>      -0.00013042       0.00593846      -0.00080866 </v>
   <v>       0.00001600       0.00020164      -0.00002202 </v>
   <v>       0.00006256      -0.00259723       0.00057047 </v>
   <v>       0.00001928      -0.00020498       0.00004577 </v>
   <v>      -0.00031974       0.00013921      -0.00096174 </v>
[...]
       <r>   -27.7730     0.0000   160.0000 </r>
       <r>   -27.5344     0.0000   160.0000 </r>
       <r>   -27.2957     0.0000   160.0000 </r>
       <r>   -27.0571     0.0000   160.0000 </r>
       <r>   -26.8184     0.0000   160.0000 </r>
       <r>   -26.5797     0.0000   160.0000 </r>
       <r>   -26.3411     0.0000   160.0000 </r>
       <r>   -26.1024     0.0000   160.0000 </r>
       <r>   -25.8637     0.0000   160.0000 </r>
       <r>   -25.6251     0.0000   160.0000 </r>
       <r>   -25.3864     0.0000   160.0000 </r>
       <r>   -25.1478     0.0000   160.0000 </r>
       <r>   -24.9091     0.0000   160.0000 </r>
       <r>   -24.6704     0.0000   160.0000 </r>
       <r>   -24.4318     0.0000   160.0000 </r>
       <r>   -24.1931     0.0000   160.0000 </r>
       <r>   -23.9544     0.0000   160.0000 </r>
       <r>   -23.7158     0.0000   160.0000 </r>
       <r>   -23.4771     0.0000   160.0000 </r>
       <r>   -23.2385     0.0000   160.0000 </r>
       <r>   -22.9998     0.0000   160.0000 </r>
       <r>   -22.7611     0.0000   160.0000 </r>
       <r>   -22.5225     0.0000   160.0000 </r>
       <r>   -22.2838     0.0000   160.0000 </r>
       <r>   -22.0451     0.0000   160.0000 </r>
       <r>   -21.8065     0.0000   160.0000 </r>
       <r>   -21.5678     0.0000   160.0000 </r>
       <r>   -21.3292     0.0000   160.0000 </r>
       <r>   -21.0905     0.0000   160.0000 </r>
       <r>   -20.8518     0.0000   160.0000 </r>
       <r>   -20.6132     0.0000   160.0000 </r>
       <r>   -20.3745     0.0000   160.0000 </r>
       <r>   -20.1359     0.0000   160.0000 </r>
       <r>   -19.8972     0.0000   160.0000 </r>
       <r>   -19.6585     0.0000   160.0000 </r>
       <r>   -19.4199     0.0000   160.0000 </r>
       <r>   -19.1812     0.0000   160.0000 </r>
       <r>   -18.9425     0.0000   160.0000 </r>
       <r>   -18.7039     0.0000   160.0000 </r>
       <r>   -18.4652     0.0000   160.0000 </r>
       <r>   -18.2266     0.0000   160.0000 </r>
       <r>   -17.9879     0.0000   160.0000 </r>
       <r>   -17.7492     0.0000   160.0000 </r>
       <r>   -17.5106     0.0000   160.0000 </r>
       <r>   -17.2719     0.0000   160.0000 </r>
       <r>   -17.0332     0.0000   160.0000 </r>
       <r>   -16.7946     0.0000   160.0000 </r>
       <r>   -16.5559     0.0000   160.0000 </r>
       <r>   -16.3173     0.0000   160.0000 </r>
       <r>   -16.0786     0.0000   160.0000 </r>
       <r>   -15.8399     0.0000   160.0000 </r>
       <r>   -15.6013     0.0000   160.0000 </r>
       <r>   -15.3626     0.0000   160.0000 </r>
       <r>   -15.1239     0.0000   160.0000 </r>
       <r>   -14.8853     0.0000   160.0000 </r>
       <r>   -14.6466     0.0000   160.0000 </r>
       <r>   -14.4080     0.0000   160.0000 </r>
       <r>   -14.1693     0.0000   160.0000 </r>
       <r>   -13.9306     0.0000   160.0000 </r>
       <r>   -13.6920     0.0000   160.0000 </r>
       <r>   -13.4533     0.0000   160.0000 </r>
       <r>   -13.2147     5.2845   161.2612 </r>
       <r>   -12.9760   108.3986   187.1319 </r>
       <r>   -12.7373    20.3976   192.0000 </r>
       <r>   -12.4987     0.0000   192.0000 </r>
       <r>   -12.2600     0.0000   192.0000 </r>
       <r>   -12.0213     0.0000   192.0000 </r>
       <r>   -11.7827     0.0000   192.0000 </r>
       <r>   -11.5440     0.0000   192.0000 </r>
       <r>   -11.3054     0.0000   192.0000 </r>
       <r>   -11.0667     0.0000   192.0000 </r>
       <r>   -10.8280     0.0000   192.0000 </r>
       <r>   -10.5894     0.0000   192.0000 </r>
       <r>   -10.3507     0.0000   192.0000 </r>
       <r>   -10.1120     0.0000   192.0000 </r>
       <r>    -9.8734     0.0000   192.0000 </r>
       <r>    -9.6347     0.0000   192.0000 </r>
       <r>    -9.3961     0.0000   192.0000 </r>
       <r>    -9.1574     0.0000   192.0000 </r>
       <r>    -8.9187     0.0000   192.0000 </r>
       <r>    -8.6801     0.0000   192.0000 </r>
       <r>    -8.4414     0.0000   192.0000 </r>
       <r>    -8.2027     0.0000   192.0000 </r>
       <r>    -7.9641     0.0000   192.0000 </r>
       <r>    -7.7254     0.0000   192.0000 </r>
       <r>    -7.4868     0.1119   192.0267 </r>
       <r>    -7.2481    41.1812   201.8551 </r>
       <r>    -7.0094    63.6733   217.0515 </r>
       <r>    -6.7708    28.1985   223.7814 </r>
       <r>    -6.5321     0.9159   224.0000 </r>
       <r>    -6.2935     0.0000   224.0000 </r>
       <r>    -6.0548     0.0000   224.0000 </r>
       <r>    -5.8161     0.0000   224.0000 </r>
       <r>    -5.5775     0.0000   224.0000 </r>
       <r>    -5.3388     0.0000   224.0000 </r>
       <r>    -5.1001     0.0000   224.0000 </r>
       <r>    -4.8615     0.0000   224.0000 </r>
       <r>    -4.6228     0.0000   224.0000 </r>
       <r>    -4.3842     0.0000   224.0000 </r>
       <r>    -4.1455     0.0000   224.0000 </r>
       <r>    -3.9068     0.0000   224.0000 </r>
       <r>    -3.6682     0.0000   224.0000 </r>
       <r>    -3.4295     0.0000   224.0000 </r>
       <r>    -3.1908     0.0000   224.0000 </r>
       <r>    -2.9522     0.0000   224.0000 </r>
       <r>    -2.7135     0.0000   224.0000 </r>
       <r>    -2.4749     0.0000   224.0000 </r>
       <r>    -2.2362     0.0000   224.0000 </r>
       <r>    -1.9975     0.0000   224.0000 </r>
       <r>    -1.7589     0.0000   224.0000 </r>
       <r>    -1.5202     0.0000   224.0000 </r>
       <r>    -1.2815     0.0000   224.0000 </r>
       <r>    -1.0429     0.0820   224.0196 </r>
       <r>    -0.8042    21.1170   229.0594 </r>
       <r>    -0.5656    28.0073   235.7437 </r>
       <r>    -0.3269    15.7496   239.5025 </r>
       <r>    -0.0882    14.3358   242.9239 </r>
       <r>     0.1504    26.2834   249.1968 </r>
       <r>     0.3891    51.4236   261.4696 </r>
       <r>     0.6277    78.5945   280.2272 </r>
       <r>     0.8664    71.6347   297.3237 </r>
       <r>     1.1051    76.7331   315.6369 </r>
       <r>     1.3437    29.5010   322.6777 </r>
       <r>     1.5824    37.4992   331.6274 </r>
       <r>     1.8211    49.6748   343.4828 </r>
       <r>     2.0597    43.5949   353.8873 </r>
       <r>     2.2984    28.3481   360.6529 </r>
       <r>     2.5370    50.8475   372.7883 </r>
       <r>     2.7757    68.0909   389.0390 </r>
       <r>     3.0144    82.1996   408.6570 </r>
       <r>     3.2530    29.0496   415.5900 </r>
       <r>     3.4917    22.0291   420.8475 </r>
       <r>     3.7304    47.5137   432.1873 </r>
       <r>     3.9690    55.5350   445.4413 </r>
       <r>     4.2077    10.7203   447.9999 </r>
       <r>     4.4463     0.0005   448.0000 </r>
       <r>     4.6850     0.0000   448.0000 </r>
       <r>     4.9237     0.0000   448.0000 </r>
       <r>     5.1623     0.0000   448.0000 </r>
       <r>     5.4010     0.0000   448.0000 </r>
       <r>     5.6397     0.0000   448.0000 </r>
       <r>     5.8783     0.0000   448.0000 </r>
       <r>     6.1170     0.0000   448.0000 </r>
       <r>     6.3556     0.0000   448.0000 </r>
       <r>     6.5943     1.3627   448.3252 </r>
       <r>     6.8330    53.5077   461.0955 </r>
       <r>     7.0716    76.9530   479.4612 </r>
       <r>     7.3103    57.9360   493.2884 </r>
       <r>     7.5489    68.7556   509.6977 </r>
       <r>     7.7876    63.5533   524.8655 </r>
       <r>     8.0263    97.6727   548.1762 </r>
       <r>     8.2649    70.1602   564.9208 </r>
       <r>     8.5036    35.3778   573.3641 </r>
       <r>     8.7423    13.0941   576.4892 </r>
       <r>     8.9809     8.4178   578.4982 </r>
       <r>     9.2196    11.5330   581.2507 </r>
       <r>     9.4582    20.5914   586.1651 </r>
       <r>     9.6969    25.5775   592.2694 </r>
       <r>     9.9356    41.6871   602.2186 </r>
       <r>    10.1742    32.7469   610.0340 </r>
       <r>    10.4129    33.8408   618.1105 </r>
       <r>    10.6516    32.7626   625.9297 </r>
       <r>    10.8902    23.5206   631.5432 </r>
       <r>    11.1289    34.0093   639.6599 </r>
       <r>    11.3675    23.1079   645.1749 </r>
       <r>    11.6062    35.8407   653.7287 </r>
       <r>    11.8449    52.3887   666.2319 </r>
       <r>    12.0835    58.0796   680.0933 </r>
       <r>    12.3222    45.7759   691.0183 </r>
       <r>    12.5609    31.0709   698.4337 </r>
       <r>    12.7995    32.5551   706.2034 </r>
       <r>    13.0382    35.3040   714.6291 </r>
       <r>    13.2768    36.5704   723.3571 </r>
       <r>    13.5155    28.9558   730.2678 </r>
       <r>    13.7542     7.2582   732.0000 </r>
       <r>    13.9928     0.0000   732.0000 </r>
       <r>    14.2315     0.0000   732.0000 </r>
       <r>    14.4701     0.0000   732.0000 </r>
       <r>    14.7088     0.0000   732.0000 </r>
       <r>    14.9475     0.0000   732.0000 </r>
       <r>    15.1861     0.0000   732.0000 </r>
       <r>    15.4248     0.0000   732.0000 </r>
       <r>    15.6635     0.0000   732.0000 </r>
       <r>    15.9021     0.0000   732.0000 </r>
       <r>    16.1408     0.0000   732.0000 </r>
       <r>    16.3794     0.0000   732.0000 </r>
       <r>    16.6181     0.0000   732.0000 </r>
       <r>    16.8568     0.0000   732.0000 </r>
      </set>
     </set>
    </array>
   </total>
  </dos>
 </calculation>
 <structure name="finalpos" >
  <crystal>
   <varray name="basis" >
    <v>      15.42482202       0.00000000       0.00000000 </v>
    <v>       0.00000000      11.21024242       0.00000000 </v>
    <v>       0.00000000       0.00000000      11.27702698 </v>
   </varray>
   <i name="volume">   1949.97833107 </i>
   <varray name="rec_basis" >
    <v>       0.06483057       0.00000000       0.00000000 </v>
    <v>       0.00000000       0.08920414       0.00000000 </v>
    <v>       0.00000000       0.00000000       0.08867585 </v>
   </varray>
  </crystal>
  <varray name="positions" >
   <v>       0.12500000       0.25089204       0.46751010 </v>
   <v>       0.62500000       0.25000000       0.46751010 </v>
   <v>       0.12500000       0.75000000       0.46751010 </v>
   <v>       0.62500000       0.75000000       0.46751010 </v>
   <v>       0.12500000       0.25000000       0.96751010 </v>
   <v>       0.62500000       0.25000000       0.96751010 </v>
   <v>       0.12500000       0.75000000       0.96751010 </v>
   <v>       0.62500000       0.75000000       0.96751010 </v>
   <v>       0.12500000       0.00000000       0.28248990 </v>
   <v>       0.62500000       0.00000000       0.28248990 </v>
   <v>       0.12500000       0.50000000       0.28248990 </v>
   <v>       0.62500000       0.50000000       0.28248990 </v>
   <v>       0.12500000       0.00000000       0.78248990 </v>
   <v>       0.62500000       0.00000000       0.78248990 </v>
   <v>       0.12500000       0.50000000       0.78248990 </v>
   <v>       0.62500000       0.50000000       0.78248990 </v>
   <v>       0.37500000       0.25000000       0.03248990 </v>
   <v>       0.87500000       0.25000000       0.03248990 </v>
   <v>       0.37500000       0.75000000       0.03248990 </v>
   <v>       0.87500000       0.75000000       0.03248990 </v>
   <v>       0.37500000       0.25000000       0.53248990 </v>
   <v>       0.87500000       0.25000000       0.53248990 </v>
   <v>       0.37500000       0.75000000       0.53248990 </v>
   <v>       0.87500000       0.75000000       0.53248990 </v>
   <v>       0.37500000       0.00000000       0.21751010 </v>
   <v>       0.87500000       0.00000000       0.21751010 </v>
   <v>       0.37500000       0.50000000       0.21751010 </v>
   <v>       0.87500000       0.50000000       0.21751010 </v>
   <v>       0.37500000       0.00000000       0.71751010 </v>
   <v>       0.87500000       0.00000000       0.71751010 </v>
   <v>       0.37500000       0.50000000       0.71751010 </v>
   <v>       0.87500000       0.50000000       0.71751010 </v>
   <v>       0.26924068       0.37500000       0.37500000 </v>
   <v>       0.76924068       0.37500000       0.37500000 </v>
   <v>       0.26924068       0.87500000       0.37500000 </v>
   <v>       0.76924068       0.87500000       0.37500000 </v>
   <v>       0.26924068       0.37500000       0.87500000 </v>
   <v>       0.76924068       0.37500000       0.87500000 </v>
   <v>       0.26924068       0.87500000       0.87500000 </v>
   <v>       0.76924068       0.87500000       0.87500000 </v>
   <v>       0.23075932       0.12500000       0.12500000 </v>
   <v>       0.73075932       0.12500000       0.12500000 </v>
   <v>       0.23075932       0.62500000       0.12500000 </v>
   <v>       0.73075932       0.62500000       0.12500000 </v>
   <v>       0.23075932       0.12500000       0.62500000 </v>
   <v>       0.73075932       0.12500000       0.62500000 </v>
   <v>       0.23075932       0.62500000       0.62500000 </v>
   <v>       0.73075932       0.62500000       0.62500000 </v>
   <v>       0.01924068       0.37500000       0.12500000 </v>
   <v>       0.51924068       0.37500000       0.12500000 </v>
   <v>       0.01924068       0.87500000       0.12500000 </v>
   <v>       0.51924068       0.87500000       0.12500000 </v>
   <v>       0.01924068       0.37500000       0.62500000 </v>
   <v>       0.51924068       0.37500000       0.62500000 </v>
   <v>       0.01924068       0.87500000       0.62500000 </v>
   <v>       0.51924068       0.87500000       0.62500000 </v>
   <v>       0.48075932       0.12500000       0.37500000 </v>
   <v>       0.98075932       0.12500000       0.37500000 </v>
   <v>       0.48075932       0.62500000       0.37500000 </v>
   <v>       0.98075932       0.62500000       0.37500000 </v>
   <v>       0.48075932       0.12500000       0.87500000 </v>
   <v>       0.98075932       0.12500000       0.87500000 </v>
   <v>       0.48075932       0.62500000       0.87500000 </v>
   <v>       0.98075932       0.62500000       0.87500000 </v>
   <v>       0.48606648       0.37500000       0.37500000 </v>
   <v>       0.98606648       0.37500000       0.37500000 </v>
   <v>       0.48606648       0.87500000       0.37500000 </v>
   <v>       0.98606648       0.87500000       0.37500000 </v>
   <v>       0.48606648       0.37500000       0.87500000 </v>
   <v>       0.98606648       0.37500000       0.87500000 </v>
   <v>       0.48606648       0.87500000       0.87500000 </v>
   <v>       0.98606648       0.87500000       0.87500000 </v>
   <v>       0.01393352       0.12500000       0.12500000 </v>
   <v>       0.51393352       0.12500000       0.12500000 </v>
   <v>       0.01393352       0.62500000       0.12500000 </v>
   <v>       0.51393352       0.62500000       0.12500000 </v>
   <v>       0.01393352       0.12500000       0.62500000 </v>
   <v>       0.51393352       0.12500000       0.62500000 </v>
   <v>       0.01393352       0.62500000       0.62500000 </v>
   <v>       0.51393352       0.62500000       0.62500000 </v>
   <v>       0.23606648       0.37500000       0.12500000 </v>
   <v>       0.73606648       0.37500000       0.12500000 </v>
   <v>       0.23606648       0.87500000       0.12500000 </v>
   <v>       0.73606648       0.87500000       0.12500000 </v>
   <v>       0.23606648       0.37500000       0.62500000 </v>
   <v>       0.73606648       0.37500000       0.62500000 </v>
   <v>       0.23606648       0.87500000       0.62500000 </v>
   <v>       0.73606648       0.87500000       0.62500000 </v>
   <v>       0.26393352       0.12500000       0.37500000 </v>
   <v>       0.76393352       0.12500000       0.37500000 </v>
   <v>       0.26393352       0.62500000       0.37500000 </v>
   <v>       0.76393352       0.62500000       0.37500000 </v>
   <v>       0.26393352       0.12500000       0.87500000 </v>
   <v>       0.76393352       0.12500000       0.87500000 </v>
   <v>       0.26393352       0.62500000       0.87500000 </v>
   <v>       0.76393352       0.62500000       0.87500000 </v>
   <v>       0.12500000       0.00000000       0.50106053 </v>
   <v>       0.62500000       0.00000000       0.50106053 </v>
   <v>       0.12500000       0.50000000       0.50106053 </v>
   <v>       0.62500000       0.50000000       0.50106053 </v>
   <v>       0.12500000       0.00000000       0.00106053 </v>
   <v>       0.62500000       0.00000000       0.00106053 </v>
   <v>       0.12500000       0.50000000       0.00106053 </v>
   <v>       0.62500000       0.50000000       0.00106053 </v>
   <v>       0.12500000       0.25000000       0.24893947 </v>
   <v>       0.62500000       0.25000000       0.24893947 </v>
   <v>       0.12500000       0.75000000       0.24893947 </v>
   <v>       0.62500000       0.75000000       0.24893947 </v>
   <v>       0.12500000       0.25000000       0.74893947 </v>
   <v>       0.62500000       0.25000000       0.74893947 </v>
   <v>       0.12500000       0.75000000       0.74893947 </v>
   <v>       0.62500000       0.75000000       0.74893947 </v>
   <v>       0.37500000       0.00000000       0.99893947 </v>
   <v>       0.87500000       0.00000000       0.99893947 </v>
   <v>       0.37500000       0.50000000       0.99893947 </v>
   <v>       0.87500000       0.50000000       0.99893947 </v>
   <v>       0.37500000       0.00000000       0.49893947 </v>
   <v>       0.87500000       0.00000000       0.49893947 </v>
   <v>       0.37500000       0.50000000       0.49893947 </v>
   <v>       0.87500000       0.50000000       0.49893947 </v>
   <v>       0.37500000       0.25000000       0.25106053 </v>
   <v>       0.87500000       0.25000000       0.25106053 </v>
   <v>       0.37500000       0.75000000       0.25106053 </v>
   <v>       0.87500000       0.75000000       0.25106053 </v>
   <v>       0.37500000       0.25000000       0.75106053 </v>
   <v>       0.87500000       0.25000000       0.75106053 </v>
   <v>       0.37500000       0.75000000       0.75106053 </v>
   <v>       0.87500000       0.75000000       0.75106053 </v>
   <v>       0.00000000       0.25000000       0.00000000 </v>
   <v>       0.50000000       0.25000000       0.00000000 </v>
   <v>       0.00000000       0.75000000       0.00000000 </v>
   <v>       0.50000000       0.75000000       0.00000000 </v>
   <v>       0.00000000       0.25000000       0.50000000 </v>
   <v>       0.50000000       0.25000000       0.50000000 </v>
   <v>       0.00000000       0.75000000       0.50000000 </v>
   <v>       0.50000000       0.75000000       0.50000000 </v>
   <v>       0.00000000       0.00000000       0.25000000 </v>
   <v>       0.50000000       0.00000000       0.25000000 </v>
   <v>       0.00000000       0.50000000       0.25000000 </v>
   <v>       0.50000000       0.50000000       0.25000000 </v>
   <v>       0.00000000       0.00000000       0.75000000 </v>
   <v>       0.50000000       0.00000000       0.75000000 </v>
   <v>       0.00000000       0.50000000       0.75000000 </v>
   <v>       0.50000000       0.50000000       0.75000000 </v>
   <v>       0.25000000       0.25000000       0.00000000 </v>
   <v>       0.75000000       0.25000000       0.00000000 </v>
   <v>       0.25000000       0.75000000       0.00000000 </v>
   <v>       0.75000000       0.75000000       0.00000000 </v>
   <v>       0.25000000       0.25000000       0.50000000 </v>
   <v>       0.75000000       0.25000000       0.50000000 </v>
   <v>       0.25000000       0.75000000       0.50000000 </v>
   <v>       0.75000000       0.75000000       0.50000000 </v>
   <v>       0.25000000       0.00000000       0.25000000 </v>
   <v>       0.75000000       0.00000000       0.25000000 </v>
   <v>       0.25000000       0.50000000       0.25000000 </v>
   <v>       0.75000000       0.50000000       0.25000000 </v>
   <v>       0.25000000       0.00000000       0.75000000 </v>
   <v>       0.75000000       0.00000000       0.75000000 </v>
   <v>       0.25000000       0.50000000       0.75000000 </v>
   <v>       0.75000000       0.50000000       0.75000000 </v>
  </varray>
 </structure>
</modeling>
