<?xml version="1.0" encoding="ISO-8859-1"?>
<modeling>
 <generator>
  <i name="program" type="string">vasp </i>
  <i name="version" type="string">5.4.4.18Apr17-6-g9f103f2a35  </i>
  <i name="subversion" type="string">(build Oct 25 2017 14:42:18) complex            parallel </i>
  <i name="platform" type="string">LinuxIFC </i>
  <i name="date" type="string">2021 04 18 </i>
  <i name="time" type="string">02:02:59 </i>
 </generator>
 <incar>
  <i type="string" name="PREC">accurate</i>
  <i type="string" name="ALGO"> normal</i>
  <i type="logical" name="ADDGRID"> T  </i>
  <i type="int" name="ISPIN">     2</i>
  <i type="int" name="ICHARG">     1</i>
  <i type="int" name="NELM">   200</i>
  <i type="int" name="NELMIN">     8</i>
  <i name="EDIFF">      0.00000100</i>
  <i type="int" name="ISYM">     0</i>
  <i name="ENCUT">    650.00000000</i>
  <v name="MAGMOM">      0.60000000      0.60000000      0.60000000      0.60000000      0.60000000      0.60000000      0.60000000      0.60000000      0.60000000      0.60000000      0.60000000      0.60000000      0.60000000      0.60000000      0.60000000      0.60000000      0.60000000      0.60000000      0.60000000      0.60000000
      0.60000000      0.60000000      0.60000000      0.60000000      0.60000000      0.60000000      0.60000000      0.60000000      0.60000000      0.60000000      0.60000000      0.60000000      0.60000000      0.60000000      0.60000000      0.60000000      0.60000000      0.60000000      0.60000000      0.60000000
      0.60000000      0.60000000      0.60000000      0.60000000      0.60000000      0.60000000      0.60000000      0.60000000      5.00000000      5.00000000      5.00000000      5.00000000      5.00000000      5.00000000      5.00000000      5.00000000      5.00000000      5.00000000      5.00000000      5.00000000
      5.00000000      5.00000000      5.00000000      5.00000000      5.00000000      5.00000000      5.00000000      5.00000000      5.00000000      5.00000000      5.00000000      5.00000000      5.00000000      5.00000000      5.00000000      5.00000000      5.00000000      5.00000000      5.00000000      5.00000000
      5.00000000      5.00000000      5.00000000      5.00000000      0.60000000      0.60000000      0.60000000      0.60000000      0.60000000      0.60000000      0.60000000      0.60000000      0.60000000      0.60000000      0.60000000      0.60000000      0.60000000      0.60000000      0.60000000      0.60000000
      0.60000000      0.60000000      0.60000000      0.60000000      0.60000000      0.60000000      0.60000000      0.60000000      0.60000000      0.60000000      0.60000000      0.60000000      0.60000000      0.60000000      0.60000000      0.60000000      0.60000000      0.60000000      0.60000000      0.60000000
      0.60000000      0.60000000      0.60000000      0.60000000      0.60000000      0.60000000      0.60000000      0.60000000      0.60000000      0.60000000      0.60000000      0.60000000      0.60000000      0.60000000      0.60000000      0.60000000      0.60000000      0.60000000      0.60000000      0.60000000
      0.60000000      0.60000000      0.60000000      0.60000000</v>
  <i type="logical" name="LREAL"> F  </i>
  <i type="int" name="ISMEAR">     0</i>
  <i name="SIGMA">      0.05000000</i>
  <i type="int" name="NWRITE">     1</i>
  <i type="int" name="LMAXMIX">     4</i>
  <i type="logical" name="LWAVE"> F  </i>
  <i type="logical" name="LASPH"> T  </i>
  <v type="int" name="KPOINT_BSE">    -1     0     0     0</v>
  <i type="int" name="NELM">   200</i>
  <i type="string" name="GGA"> pe</i>
  <i type="logical" name="LDAU"> T  </i>
  <v type="int" name="LDAUTYPE">     2</v>
  <v type="int" name="LDAUL">    -1     2    -1    -1</v>
  <v name="LDAUU">      0.00000000      4.00000000      0.00000000      0.00000000</v>
  <v name="LDAUJ">      0.00000000      0.00000000      0.00000000      0.00000000</v>
  <i type="logical" name="LASPH"> T  </i>
 </incar>
 <structure name="primitive_cell" >
  <crystal>
   <varray name="basis" >
    <v>      15.21162830       0.00516956      -2.78361592 </v>
    <v>      -0.40798665      11.93565774      -2.20735884 </v>
    <v>      -0.06175567      -0.11168197      10.54442638 </v>
   </varray>
   <i name="volume">   1908.54869108 </i>
   <varray name="rec_basis" >
    <v>       0.06581343       0.00232549       0.00041008 </v>
    <v>       0.00013433       0.08395174       0.00088997 </v>
    <v>       0.01740216       0.01818827       0.09513139 </v>
   </varray>
  </crystal>
  <varray name="positions" >
   <v>       0.47527516       0.00156706       0.00446200 </v>
   <v>      -0.47527003       0.03239991       0.19439947 </v>
   <v>       0.47618324      -0.03189981      -0.19139884 </v>
   <v>       0.37500000       0.16666667       0.00000000 </v>
   <v>       0.37500000      -0.16666667       0.00000000 </v>
   <v>       0.40535584       0.03794021       0.22764128 </v>
   <v>      -0.35733875       0.02567762       0.15406572 </v>
   <v>       0.47796480       0.13582521      -0.18504874 </v>
   <v>       0.34464416      -0.03794021      -0.22764128 </v>
   <v>       0.47796480      -0.19750812      -0.18504874 </v>
   <v>      -0.47447416       0.19979622       0.19877732 </v>
   <v>      -0.39266125      -0.02567762      -0.15406572 </v>
   <v>      -0.47447416      -0.13353711       0.19877732 </v>
   <v>      -0.37500000       0.16666667       0.00000000 </v>
   <v>       0.27472484      -0.00074367      -0.00446200 </v>
   <v>      -0.37500000      -0.16666667       0.00000000 </v>
   <v>       0.27381676       0.03189981       0.19139884 </v>
   <v>      -0.42788806       0.06536154       0.39216926 </v>
   <v>       0.22527003      -0.03239991      -0.19439947 </v>
   <v>       0.47527516       0.33407700       0.00446200 </v>
   <v>       0.47527516      -0.33258966       0.00446200 </v>
   <v>       0.46517249      -0.06641917      -0.39851502 </v>
   <v>       0.27203520       0.19750812       0.18504874 </v>
   <v>       0.27203520      -0.13582521       0.18504874 </v>
   <v>      -0.47527003       0.36573324       0.19439947 </v>
   <v>      -0.47527003      -0.30093342       0.19439947 </v>
   <v>       0.41542107       0.22793643       0.36761855 </v>
   <v>       0.47618324       0.30143353      -0.19139884 </v>
   <v>       0.22447416       0.13353711      -0.19877732 </v>
   <v>       0.41542107      -0.10539691       0.36761855 </v>
   <v>       0.33457893       0.10539691      -0.36761855 </v>
   <v>       0.22447416      -0.19979622      -0.19877732 </v>
   <v>       0.33457893      -0.22793643      -0.36761855 </v>
   <v>       0.47618324      -0.36523314      -0.19139884 </v>
   <v>      -0.22527516      -0.00074367      -0.00446200 </v>
   <v>      -0.22618324       0.03189981       0.19139884 </v>
   <v>      -0.27472997      -0.03239991      -0.19439947 </v>
   <v>      -0.32385262       0.22809805       0.36858830 </v>
   <v>      -0.42614738       0.10523528      -0.36858830 </v>
   <v>      -0.32385262      -0.10523528       0.36858830 </v>
   <v>      -0.42614738      -0.22809805      -0.36858830 </v>
   <v>       0.40535584       0.37127355       0.22764128 </v>
   <v>      -0.35733875       0.35901095       0.15406572 </v>
   <v>       0.40535584      -0.29539312       0.22764128 </v>
   <v>      -0.35733875      -0.30765571       0.15406572 </v>
   <v>       0.34464416       0.29539312      -0.22764128 </v>
   <v>      -0.39266125       0.30765571      -0.15406572 </v>
   <v>       0.34464416      -0.37127355      -0.22764128 </v>
   <v>      -0.39266125      -0.35901095      -0.15406572 </v>
   <v>      -0.22796480       0.19750812       0.18504874 </v>
   <v>      -0.22796480      -0.13582521       0.18504874 </v>
   <v>       0.27472484       0.33258966      -0.00446200 </v>
   <v>       0.27472484      -0.33407700      -0.00446200 </v>
   <v>      -0.27552584       0.13353711      -0.19877732 </v>
   <v>      -0.27552584      -0.19979622      -0.19877732 </v>
   <v>       0.28482751       0.06641917       0.39851502 </v>
   <v>       0.17788806      -0.06536154      -0.39216926 </v>
   <v>       0.10733875      -0.02567762      -0.15406572 </v>
   <v>      -0.32211194      -0.06536154      -0.39216926 </v>
   <v>       0.14266125       0.02567762       0.15406572 </v>
   <v>       0.27381676       0.36523314       0.19139884 </v>
   <v>      -0.21517249       0.06641917       0.39851502 </v>
   <v>       0.27381676      -0.30143353       0.19139884 </v>
   <v>      -0.42788806       0.39869487       0.39216926 </v>
   <v>       0.22527003       0.30093342      -0.19439947 </v>
   <v>      -0.42788806      -0.26797179       0.39216926 </v>
   <v>       0.22527003      -0.36573324      -0.19439947 </v>
   <v>       0.12500000       0.16666667       0.00000000 </v>
   <v>       0.12500000      -0.16666667       0.00000000 </v>
   <v>       0.46517249       0.26691416      -0.39851502 </v>
   <v>       0.46517249      -0.39975250      -0.39851502 </v>
   <v>      -0.22527516       0.33258966      -0.00446200 </v>
   <v>      -0.22618324       0.36523314       0.19139884 </v>
   <v>      -0.22527516      -0.33407700      -0.00446200 </v>
   <v>      -0.22618324      -0.30143353       0.19139884 </v>
   <v>      -0.27472997       0.30093342      -0.19439947 </v>
   <v>      -0.27472997      -0.36573324      -0.19439947 </v>
   <v>       0.37500000      -0.50000000       0.00000000 </v>
   <v>       0.47796480       0.46915854      -0.18504874 </v>
   <v>      -0.47447416      -0.46687045       0.19877732 </v>
   <v>      -0.37500000      -0.50000000       0.00000000 </v>
   <v>      -0.12500000       0.16666667       0.00000000 </v>
   <v>      -0.12500000      -0.16666667       0.00000000 </v>
   <v>      -0.15535584      -0.03794021      -0.22764128 </v>
   <v>      -0.09464416       0.03794021       0.22764128 </v>
   <v>       0.28482751      -0.26691416       0.39851502 </v>
   <v>      -0.32211194       0.26797179      -0.39216926 </v>
   <v>       0.28482751       0.39975250       0.39851502 </v>
   <v>       0.17614738       0.22809805       0.36858830 </v>
   <v>       0.17614738      -0.10523528       0.36858830 </v>
   <v>       0.17788806       0.26797179      -0.39216926 </v>
   <v>       0.17788806      -0.39869487      -0.39216926 </v>
   <v>       0.10733875       0.30765571      -0.15406572 </v>
   <v>       0.10733875      -0.35901095      -0.15406572 </v>
   <v>      -0.32211194      -0.39869487      -0.39216926 </v>
   <v>       0.14266125       0.35901095       0.15406572 </v>
   <v>       0.14266125      -0.30765571       0.15406572 </v>
   <v>       0.07385262       0.10523528      -0.36858830 </v>
   <v>      -0.21517249       0.39975250       0.39851502 </v>
   <v>       0.07385262      -0.22809805      -0.36858830 </v>
   <v>      -0.21517249      -0.26691416       0.39851502 </v>
   <v>       0.27203520      -0.46915854       0.18504874 </v>
   <v>       0.41542107      -0.43873024       0.36761855 </v>
   <v>       0.22447416       0.46687045      -0.19877732 </v>
   <v>       0.33457893       0.43873024      -0.36761855 </v>
   <v>      -0.08457893       0.22793643       0.36761855 </v>
   <v>      -0.08457893      -0.10539691       0.36761855 </v>
   <v>      -0.32385262      -0.43856862       0.36858830 </v>
   <v>      -0.42614738       0.43856862      -0.36858830 </v>
   <v>       0.02472997       0.03239991       0.19439947 </v>
   <v>      -0.02381676      -0.03189981      -0.19139884 </v>
   <v>      -0.16542107       0.10539691      -0.36761855 </v>
   <v>      -0.16542107      -0.22793643      -0.36761855 </v>
   <v>      -0.22796480      -0.46915854       0.18504874 </v>
   <v>      -0.27552584       0.46687045      -0.19877732 </v>
   <v>      -0.02472484       0.00074367       0.00446200 </v>
   <v>      -0.15535584       0.29539312      -0.22764128 </v>
   <v>      -0.15535584      -0.37127355      -0.22764128 </v>
   <v>      -0.09464416       0.37127355       0.22764128 </v>
   <v>      -0.09464416      -0.29539312       0.22764128 </v>
   <v>      -0.02203520       0.13582521      -0.18504874 </v>
   <v>      -0.02203520      -0.19750812      -0.18504874 </v>
   <v>       0.02552584       0.19979622       0.19877732 </v>
   <v>       0.02552584      -0.13353711       0.19877732 </v>
   <v>       0.07211194       0.06536154       0.39216926 </v>
   <v>       0.12500000      -0.50000000       0.00000000 </v>
   <v>      -0.03482751      -0.06641917      -0.39851502 </v>
   <v>       0.07211194      -0.26797179       0.39216926 </v>
   <v>       0.17614738      -0.43856862       0.36858830 </v>
   <v>       0.02472997       0.36573324       0.19439947 </v>
   <v>       0.02472997      -0.30093342       0.19439947 </v>
   <v>      -0.02381676       0.30143353      -0.19139884 </v>
   <v>      -0.02381676      -0.36523314      -0.19139884 </v>
   <v>      -0.12500000      -0.50000000       0.00000000 </v>
   <v>      -0.16542107       0.43873024      -0.36761855 </v>
   <v>      -0.02472484       0.33407700       0.00446200 </v>
   <v>      -0.02472484      -0.33258966       0.00446200 </v>
   <v>       0.07211194       0.39869487       0.39216926 </v>
   <v>       0.07385262       0.43856862      -0.36858830 </v>
   <v>      -0.03482751       0.26691416      -0.39851502 </v>
   <v>      -0.03482751      -0.39975250      -0.39851502 </v>
   <v>      -0.08457893      -0.43873024       0.36761855 </v>
   <v>      -0.02203520       0.46915854      -0.18504874 </v>
   <v>       0.02552584      -0.46687045       0.19877732 </v>
  </varray>
 </structure>
 <varray name="primitive_index" >
  <v type="int" >        1 </v>
  <v type="int" >      134 </v>
  <v type="int" >      131 </v>
  <v type="int" >       91 </v>
  <v type="int" >       95 </v>
  <v type="int" >       43 </v>
  <v type="int" >       38 </v>
  <v type="int" >       67 </v>
  <v type="int" >       35 </v>
  <v type="int" >       71 </v>
  <v type="int" >       74 </v>
  <v type="int" >       30 </v>
  <v type="int" >       78 </v>
  <v type="int" >       86 </v>
  <v type="int" >       11 </v>
  <v type="int" >       90 </v>
  <v type="int" >      139 </v>
  <v type="int" >       20 </v>
  <v type="int" >      125 </v>
  <v type="int" >        3 </v>
  <v type="int" >        5 </v>
  <v type="int" >       53 </v>
  <v type="int" >       79 </v>
  <v type="int" >       83 </v>
  <v type="int" >      136 </v>
  <v type="int" >      138 </v>
  <v type="int" >      103 </v>
  <v type="int" >      127 </v>
  <v type="int" >       61 </v>
  <v type="int" >      107 </v>
  <v type="int" >      115 </v>
  <v type="int" >       65 </v>
  <v type="int" >      119 </v>
  <v type="int" >      129 </v>
  <v type="int" >       12 </v>
  <v type="int" >      140 </v>
  <v type="int" >      126 </v>
  <v type="int" >       98 </v>
  <v type="int" >      110 </v>
  <v type="int" >      102 </v>
  <v type="int" >      114 </v>
  <v type="int" >       45 </v>
  <v type="int" >       40 </v>
  <v type="int" >       47 </v>
  <v type="int" >       42 </v>
  <v type="int" >       31 </v>
  <v type="int" >       26 </v>
  <v type="int" >       33 </v>
  <v type="int" >       28 </v>
  <v type="int" >       80 </v>
  <v type="int" >       84 </v>
  <v type="int" >        7 </v>
  <v type="int" >        9 </v>
  <v type="int" >       62 </v>
  <v type="int" >       66 </v>
  <v type="int" >       55 </v>
  <v type="int" >       17 </v>
  <v type="int" >       29 </v>
  <v type="int" >       18 </v>
  <v type="int" >       37 </v>
  <v type="int" >      141 </v>
  <v type="int" >       56 </v>
  <v type="int" >      143 </v>
  <v type="int" >       22 </v>
  <v type="int" >      121 </v>
  <v type="int" >       24 </v>
  <v type="int" >      123 </v>
  <v type="int" >       85 </v>
  <v type="int" >       89 </v>
  <v type="int" >       49 </v>
  <v type="int" >       51 </v>
  <v type="int" >        8 </v>
  <v type="int" >      142 </v>
  <v type="int" >       10 </v>
  <v type="int" >      144 </v>
  <v type="int" >      122 </v>
  <v type="int" >      124 </v>
  <v type="int" >       93 </v>
  <v type="int" >       69 </v>
  <v type="int" >       76 </v>
  <v type="int" >       88 </v>
  <v type="int" >       92 </v>
  <v type="int" >       96 </v>
  <v type="int" >       36 </v>
  <v type="int" >       44 </v>
  <v type="int" >       59 </v>
  <v type="int" >       14 </v>
  <v type="int" >       57 </v>
  <v type="int" >       97 </v>
  <v type="int" >      101 </v>
  <v type="int" >       13 </v>
  <v type="int" >       15 </v>
  <v type="int" >       25 </v>
  <v type="int" >       27 </v>
  <v type="int" >       16 </v>
  <v type="int" >       39 </v>
  <v type="int" >       41 </v>
  <v type="int" >      109 </v>
  <v type="int" >       58 </v>
  <v type="int" >      113 </v>
  <v type="int" >       60 </v>
  <v type="int" >       81 </v>
  <v type="int" >      105 </v>
  <v type="int" >       63 </v>
  <v type="int" >      117 </v>
  <v type="int" >      104 </v>
  <v type="int" >      108 </v>
  <v type="int" >      100 </v>
  <v type="int" >      112 </v>
  <v type="int" >      133 </v>
  <v type="int" >      132 </v>
  <v type="int" >      116 </v>
  <v type="int" >      120 </v>
  <v type="int" >       82 </v>
  <v type="int" >       64 </v>
  <v type="int" >        2 </v>
  <v type="int" >       32 </v>
  <v type="int" >       34 </v>
  <v type="int" >       46 </v>
  <v type="int" >       48 </v>
  <v type="int" >       68 </v>
  <v type="int" >       72 </v>
  <v type="int" >       73 </v>
  <v type="int" >       77 </v>
  <v type="int" >       19 </v>
  <v type="int" >       87 </v>
  <v type="int" >       54 </v>
  <v type="int" >       23 </v>
  <v type="int" >       99 </v>
  <v type="int" >      135 </v>
  <v type="int" >      137 </v>
  <v type="int" >      128 </v>
  <v type="int" >      130 </v>
  <v type="int" >       94 </v>
  <v type="int" >      118 </v>
  <v type="int" >        4 </v>
  <v type="int" >        6 </v>
  <v type="int" >       21 </v>
  <v type="int" >      111 </v>
  <v type="int" >       50 </v>
  <v type="int" >       52 </v>
  <v type="int" >      106 </v>
  <v type="int" >       70 </v>
  <v type="int" >       75 </v>
 </varray>
 <kpoints>
  <generation param="Gamma">
   <v type="int" name="divisions">       2        3        3 </v>
   <v name="usershift">      0.00000000       0.00000000       0.00000000 </v>
   <v name="genvec1">      0.50000000       0.00000000      -0.00000000 </v>
   <v name="genvec2">      0.00000000       0.33333333       0.00000000 </v>
   <v name="genvec3">      0.00000000       0.00000000       0.33333333 </v>
   <v name="shift">      0.00000000       0.00000000       0.00000000 </v>
  </generation>
  <varray name="kpointlist" >
   <v>       0.00000000       0.00000000       0.00000000 </v>
   <v>       0.50000000      -0.00000000       0.00000000 </v>
   <v>      -0.00000000       0.33333333      -0.00000000 </v>
   <v>       0.50000000       0.33333333      -0.00000000 </v>
   <v>      -0.00000000       0.00000000       0.33333333 </v>
   <v>       0.50000000       0.00000000       0.33333333 </v>
   <v>      -0.00000000       0.33333333       0.33333333 </v>
   <v>       0.50000000       0.33333333       0.33333333 </v>
   <v>      -0.00000000      -0.33333333       0.33333333 </v>
   <v>       0.50000000      -0.33333333       0.33333333 </v>
  </varray>
  <varray name="weights" >
   <v>       0.05555556 </v>
   <v>       0.05555556 </v>
   <v>       0.11111111 </v>
   <v>       0.11111111 </v>
   <v>       0.11111111 </v>
   <v>       0.11111111 </v>
   <v>       0.11111111 </v>
   <v>       0.11111111 </v>
   <v>       0.11111111 </v>
   <v>       0.11111111 </v>
  </varray>
 </kpoints>
 <parameters>
  <separator name="general" >
   <i type="string" name="SYSTEM">unknown system</i>
   <i type="logical" name="LCOMPAT"> F  </i>
  </separator>
  <separator name="electronic" >
   <i type="string" name="PREC">accura</i>
   <i name="ENMAX">    650.00000000</i>
   <i name="ENAUG">    628.94500000</i>
   <i name="EDIFF">      0.00000100</i>
   <i type="int" name="IALGO">    38</i>
   <i type="int" name="IWAVPR">    10</i>
   <i type="int" name="NBANDS">   728</i>
   <i name="NELECT">   1008.00000000</i>
   <i type="int" name="TURBO">     0</i>
   <i type="int" name="IRESTART">     0</i>
   <i type="int" name="NREBOOT">     0</i>
   <i type="int" name="NMIN">     0</i>
   <i name="EREF">      0.00000000</i>
   <separator name="electronic smearing" >
    <i type="int" name="ISMEAR">     0</i>
    <i name="SIGMA">      0.05000000</i>
    <i name="KSPACING">      0.50000000</i>
    <i type="logical" name="KGAMMA"> T  </i>
   </separator>
   <separator name="electronic projectors" >
    <i type="logical" name="LREAL"> F  </i>
    <v name="ROPT">      0.00000000      0.00000000      0.00000000      0.00000000</v>
    <i type="int" name="LMAXPAW">  -100</i>
    <i type="int" name="LMAXMIX">     4</i>
    <i type="logical" name="NLSPLINE"> F  </i>
   </separator>
   <separator name="electronic startup" >
    <i type="int" name="ISTART">     0</i>
    <i type="int" name="ICHARG">     1</i>
    <i type="int" name="INIWAV">     1</i>
   </separator>
   <separator name="electronic spin" >
    <i type="int" name="ISPIN">     2</i>
    <i type="logical" name="LNONCOLLINEAR"> F  </i>
    <v name="MAGMOM">      0.60000000      0.60000000      0.60000000      0.60000000      0.60000000      0.60000000      0.60000000      0.60000000      0.60000000      0.60000000      0.60000000      0.60000000      0.60000000      0.60000000      0.60000000      0.60000000      0.60000000      0.60000000      0.60000000      0.60000000
      0.60000000      0.60000000      0.60000000      0.60000000      0.60000000      0.60000000      0.60000000      0.60000000      0.60000000      0.60000000      0.60000000      0.60000000      0.60000000      0.60000000      0.60000000      0.60000000      0.60000000      0.60000000      0.60000000      0.60000000
      0.60000000      0.60000000      0.60000000      0.60000000      0.60000000      0.60000000      0.60000000      0.60000000      5.00000000      5.00000000      5.00000000      5.00000000      5.00000000      5.00000000      5.00000000      5.00000000      5.00000000      5.00000000      5.00000000      5.00000000
      5.00000000      5.00000000      5.00000000      5.00000000      5.00000000      5.00000000      5.00000000      5.00000000      5.00000000      5.00000000      5.00000000      5.00000000      5.00000000      5.00000000      5.00000000      5.00000000      5.00000000      5.00000000      5.00000000      5.00000000
      5.00000000      5.00000000      5.00000000      5.00000000      0.60000000      0.60000000      0.60000000      0.60000000      0.60000000      0.60000000      0.60000000      0.60000000      0.60000000      0.60000000      0.60000000      0.60000000      0.60000000      0.60000000      0.60000000      0.60000000
      0.60000000      0.60000000      0.60000000      0.60000000      0.60000000      0.60000000      0.60000000      0.60000000      0.60000000      0.60000000      0.60000000      0.60000000      0.60000000      0.60000000      0.60000000      0.60000000      0.60000000      0.60000000      0.60000000      0.60000000
      0.60000000      0.60000000      0.60000000      0.60000000      0.60000000      0.60000000      0.60000000      0.60000000      0.60000000      0.60000000      0.60000000      0.60000000      0.60000000      0.60000000      0.60000000      0.60000000      0.60000000      0.60000000      0.60000000      0.60000000
      0.60000000      0.60000000      0.60000000      0.60000000</v>
    <i name="NUPDOWN">     -1.00000000</i>
    <i type="logical" name="LSORBIT"> F  </i>
    <v name="SAXIS">      0.00000000      0.00000000      1.00000000</v>
    <i type="logical" name="LSPIRAL"> F  </i>
    <v name="QSPIRAL">      0.00000000      0.00000000      0.00000000</v>
    <i type="logical" name="LZEROZ"> F  </i>
   </separator>
   <separator name="electronic exchange-correlation" >
    <i type="logical" name="LASPH"> T  </i>
    <i type="logical" name="LMETAGGA"> F  </i>
   </separator>
   <separator name="electronic convergence" >
    <i type="int" name="NELM">   200</i>
    <i type="int" name="NELMDL">     0</i>
    <i type="int" name="NELMIN">     8</i>
    <i name="ENINI">    650.00000000</i>
    <separator name="electronic convergence detail" >
     <i type="logical" name="LDIAG"> T  </i>
     <i type="logical" name="LSUBROT"> F  </i>
     <i name="WEIMIN">      0.00000000</i>
     <i name="EBREAK">      0.00000000</i>
     <i name="DEPER">      0.30000000</i>
     <i type="int" name="NRMM">     4</i>
     <i name="TIME">      0.40000000</i>
    </separator>
   </separator>
   <separator name="electronic mixer" >
    <i name="AMIX">      0.40000000</i>
    <i name="BMIX">      1.00000000</i>
    <i name="AMIN">      0.10000000</i>
    <i name="AMIX_MAG">      1.60000000</i>
    <i name="BMIX_MAG">      1.00000000</i>
    <separator name="electronic mixer details" >
     <i type="int" name="IMIX">     4</i>
     <i type="logical" name="MIXFIRST"> F  </i>
     <i type="int" name="MAXMIX">   -45</i>
     <i name="WC">    100.00000000</i>
     <i type="int" name="INIMIX">     1</i>
     <i type="int" name="MIXPRE">     1</i>
     <i type="int" name="MREMOVE">     5</i>
    </separator>
   </separator>
   <separator name="electronic dipolcorrection" >
    <i type="logical" name="LDIPOL"> F  </i>
    <i type="logical" name="LMONO"> F  </i>
    <i type="int" name="IDIPOL">     0</i>
    <i name="EPSILON">      1.00000000</i>
    <v name="DIPOL">   -100.00000000   -100.00000000   -100.00000000</v>
    <i name="EFIELD">      0.00000000</i>
   </separator>
  </separator>
  <separator name="grids" >
   <i type="int" name="NGX">   140</i>
   <i type="int" name="NGY">   108</i>
   <i type="int" name="NGZ">    90</i>
   <i type="int" name="NGXF">   280</i>
   <i type="int" name="NGYF">   216</i>
   <i type="int" name="NGZF">   180</i>
   <i type="logical" name="ADDGRID"> T  </i>
  </separator>
  <separator name="ionic" >
   <i type="int" name="NSW">     0</i>
   <i type="int" name="IBRION">    -1</i>
   <i type="int" name="MDALGO">     0</i>
   <i type="int" name="ISIF">     2</i>
   <i name="PSTRESS">      0.00000000</i>
   <i name="EDIFFG">      0.00001000</i>
   <i type="int" name="NFREE">     0</i>
   <i name="POTIM">      0.50000000</i>
   <i name="SMASS">     -3.00000000</i>
   <i name="SCALEE">      1.00000000</i>
  </separator>
  <separator name="ionic md" >
   <i name="TEBEG">      0.00010000</i>
   <i name="TEEND">      0.00010000</i>
   <i type="int" name="NBLOCK">     1</i>
   <i type="int" name="KBLOCK">     1</i>
   <i type="int" name="NPACO">   256</i>
   <i name="APACO">     16.00000000</i>
  </separator>
  <separator name="symmetry" >
   <i type="int" name="ISYM">     0</i>
   <i name="SYMPREC">      0.00001000</i>
  </separator>
  <separator name="dos" >
   <i type="int" name="LORBIT">     0</i>
   <v name="RWIGS">     -1.00000000     -1.00000000     -1.00000000     -1.00000000</v>
   <i type="int" name="NEDOS">   301</i>
   <i name="EMIN">     10.00000000</i>
   <i name="EMAX">    -10.00000000</i>
   <i name="EFERMI">      0.00000000</i>
  </separator>
  <separator name="writing" >
   <i type="int" name="NWRITE">     1</i>
   <i type="logical" name="LWAVE"> F  </i>
   <i type="logical" name="LDOWNSAMPLE"> F  </i>
   <i type="logical" name="LCHARG"> T  </i>
   <i type="logical" name="LPARD"> F  </i>
   <i type="logical" name="LVTOT"> F  </i>
   <i type="logical" name="LVHAR"> F  </i>
   <i type="logical" name="LELF"> F  </i>
   <i type="logical" name="LOPTICS"> F  </i>
   <v name="STM">      0.00000000      0.00000000      0.00000000      0.00000000      0.00000000      0.00000000      0.00000000</v>
  </separator>
  <separator name="performance" >
   <i type="int" name="NPAR">     4</i>
   <i type="int" name="NSIM">     4</i>
   <i type="int" name="NBLK">    -1</i>
   <i type="logical" name="LPLANE"> T  </i>
   <i type="logical" name="LSCALAPACK"> T  </i>
   <i type="logical" name="LSCAAWARE"> F  </i>
   <i type="logical" name="LSCALU"> F  </i>
   <i type="logical" name="LASYNC"> F  </i>
   <i type="logical" name="LORBITALREAL"> F  </i>
  </separator>
  <separator name="miscellaneous" >
   <i type="int" name="IDIOT">     3</i>
   <i type="int" name="ISPECIAL">     0</i>
   <i type="logical" name="LMUSIC"> F  </i>
   <v name="POMASS">      7.01000000     55.84700000     32.06600000     16.00000000</v>
   <v name="DARWINR">      0.00000000      0.00000000      0.00000000      0.00000000</v>
   <v name="DARWINV">      1.00000000      1.00000000      1.00000000      1.00000000</v>
   <i type="logical" name="LCORR"> T  </i>
  </separator>
  <i type="logical" name="GGA_COMPAT"> T  </i>
  <i type="logical" name="LBERRY"> F  </i>
  <i type="int" name="ICORELEVEL">     0</i>
  <i type="logical" name="LDAU"> T  </i>
  <v type="int" name="LDAUTYPE">     2</v>
  <v type="int" name="LDAUL">    -1</v>
  <v name="LDAUU">      0.00000000</v>
  <v name="LDAUJ">      0.00000000</v>
  <i type="int" name="LDAUPRINT">     0</i>
  <i type="int" name="I_CONSTRAINED_M">     0</i>
  <separator name="electronic exchange-correlation" >
   <i type="string" name="GGA">PE</i>
   <i type="int" name="VOSKOWN">     0</i>
   <i type="logical" name="LHFCALC"> F  </i>
   <i type="string" name="PRECFOCK"></i>
   <i type="logical" name="LSYMGRAD"> F  </i>
   <i type="logical" name="LHFONE"> F  </i>
   <i type="logical" name="LRHFCALC"> F  </i>
   <i type="logical" name="LTHOMAS"> F  </i>
   <i type="logical" name="LMODELHF"> F  </i>
   <i name="ENCUT4O">     -1.00000000</i>
   <i type="int" name="EXXOEP">     0</i>
   <i type="int" name="FOURORBIT">     0</i>
   <i name="AEXX">      0.00000000</i>
   <i name="HFALPHA">      0.00000000</i>
   <i name="MCALPHA">      0.00000000</i>
   <i name="ALDAX">      1.00000000</i>
   <i name="AGGAX">      1.00000000</i>
   <i name="ALDAC">      1.00000000</i>
   <i name="AGGAC">      1.00000000</i>
   <i type="int" name="NKREDX">     1</i>
   <i type="int" name="NKREDY">     1</i>
   <i type="int" name="NKREDZ">     1</i>
   <i type="logical" name="SHIFTRED"> F  </i>
   <i type="logical" name="ODDONLY"> F  </i>
   <i type="logical" name="EVENONLY"> F  </i>
   <i type="int" name="LMAXFOCK">     0</i>
   <i type="int" name="NMAXFOCKAE">     0</i>
   <i type="logical" name="LFOCKAEDFT"> F  </i>
   <i name="HFSCREEN">      0.00000000</i>
   <i name="HFSCREENC">      0.00000000</i>
   <i type="int" name="NBANDSGWLOW">     0</i>
  </separator>
  <separator name="vdW DFT" >
   <i type="logical" name="LUSE_VDW"> F  </i>
   <i name="Zab_VDW">     -0.84910000</i>
   <i name="PARAM1">      0.12340000</i>
   <i name="PARAM2">      1.00000000</i>
   <i name="PARAM3">      0.00000000</i>
  </separator>
  <separator name="model GW" >
   <i type="int" name="MODEL_GW">     0</i>
   <i name="MODEL_EPS0">      7.95228621</i>
   <i name="MODEL_ALPHA">      1.00000000</i>
  </separator>
  <separator name="linear response parameters" >
   <i type="logical" name="LEPSILON"> F  </i>
   <i type="logical" name="LRPA"> F  </i>
   <i type="logical" name="LNABLA"> F  </i>
   <i type="logical" name="LVEL"> F  </i>
   <i type="int" name="KINTER">     0</i>
   <i name="CSHIFT">      0.10000000</i>
   <i name="OMEGAMAX">     -1.00000000</i>
   <i name="DEG_THRESHOLD">      0.00200000</i>
   <i name="RTIME">     -0.10000000</i>
   <i name="WPLASMAI">      0.00000000</i>
   <v name="DFIELD">      0.00000000      0.00000000      0.00000000</v>
   <v name="WPLASMA">      0.00000000      0.00000000      0.00000000      0.00000000      0.00000000      0.00000000      0.00000000      0.00000000      0.00000000</v>
  </separator>
  <separator name="orbital magnetization" >
   <i type="logical" name="NUCIND"> F  </i>
   <v name="MAGPOS">      0.00000000      0.00000000      0.00000000</v>
   <i type="logical" name="LNICSALL"> T  </i>
   <i type="logical" name="ORBITALMAG"> F  </i>
   <i type="logical" name="LMAGBLOCH"> F  </i>
   <i type="logical" name="LCHIMAG"> F  </i>
   <i type="logical" name="LGAUGE"> T  </i>
   <i type="int" name="MAGATOM">     0</i>
   <v name="MAGDIPOL">      0.00000000      0.00000000      0.00000000</v>
   <v name="AVECCONST">      0.00000000      0.00000000      0.00000000</v>
  </separator>
  <separator name="response functions" >
   <i type="logical" name="LADDER"> F  </i>
   <i type="logical" name="LRPAFORCE"> F  </i>
   <i type="logical" name="LFXC"> F  </i>
   <i type="logical" name="LHARTREE"> T  </i>
   <i type="int" name="IBSE">     0</i>
   <v type="int" name="KPOINT">    -1     0     0     0</v>
   <i type="logical" name="LTCTE"> F  </i>
   <i type="logical" name="LTETE"> F  </i>
   <i type="logical" name="LTRIPLET"> F  </i>
   <i type="logical" name="LFXCEPS"> F  </i>
   <i type="logical" name="LFXHEG"> F  </i>
   <i type="int" name="NATURALO">     2</i>
   <i type="logical" name="L2ORDER"> F  </i>
   <i type="logical" name="LMP2LT"> F  </i>
   <i type="logical" name="LUSEW"> F  </i>
   <i name="ENCUTGW">     -2.00000000</i>
   <i name="ENCUTGWSOFT">     -2.00000000</i>
   <i name="ENCUTLF">     -1.00000000</i>
   <i type="int" name="LMAXMP2">    -1</i>
   <i name="SCISSOR">      0.00000000</i>
   <i type="int" name="NOMEGA">     0</i>
   <i type="int" name="NOMEGAR">     0</i>
   <i type="int" name="NBANDSGW">    -1</i>
   <i type="int" name="NBANDSO">    -1</i>
   <i type="int" name="NBANDSV">    -1</i>
   <i type="int" name="NELM">   200</i>
   <i type="int" name="NELMHF">     1</i>
   <i type="int" name="DIM">     3</i>
   <i type="int" name="ANTIRES">     0</i>
   <i name="OMEGAMAX">    -30.00000000</i>
   <i name="OMEGAMIN">    -30.00000000</i>
   <i name="OMEGATL">   -200.00000000</i>
   <i type="int" name="OMEGAGRID">   140</i>
   <i name="CSHIFT">     -0.10000000</i>
   <i type="logical" name="SELFENERGY"> F  </i>
   <i type="logical" name="LSPECTRAL"> F  </i>
   <i type="logical" name="LSPECTRALGW"> F  </i>
   <i type="logical" name="LSINGLES"> F  </i>
   <i type="logical" name="LFERMIGW"> F  </i>
   <i type="logical" name="ODDONLYGW"> F  </i>
   <i type="logical" name="EVENONLYGW"> F  </i>
   <i type="int" name="NKREDLFX">     1</i>
   <i type="int" name="NKREDLFY">     1</i>
   <i type="int" name="NKREDLFZ">     1</i>
   <i type="int" name="MAXMEM">  2800</i>
   <i type="int" name="TELESCOPE">     0</i>
   <i type="int" name="TAUPAR">     1</i>
   <i type="int" name="OMEGAPAR">    -1</i>
   <i name="LAMBDA">      1.00000000</i>
  </separator>
  <separator name="External order field" >
   <i name="OFIELD_KAPPA">      0.00000000</i>
   <v name="OFIELD_K">      0.00000000      0.00000000      0.00000000</v>
   <i name="OFIELD_Q6_NEAR">      0.00000000</i>
   <i name="OFIELD_Q6_FAR">      0.00000000</i>
   <i name="OFIELD_A">      0.00000000</i>
  </separator>
 </parameters>
 <atominfo>
  <atoms>     144 </atoms>
  <types>       4 </types>
  <array name="atoms" >
   <dimension dim="1">ion</dimension>
   <field type="string">element</field>
   <field type="int">atomtype</field>
   <set>
    <rc><c>Li</c><c>   1</c></rc>
    <rc><c>Li</c><c>   1</c></rc>
    <rc><c>Li</c><c>   1</c></rc>
    <rc><c>Li</c><c>   1</c></rc>
    <rc><c>Li</c><c>   1</c></rc>
    <rc><c>Li</c><c>   1</c></rc>
    <rc><c>Li</c><c>   1</c></rc>
    <rc><c>Li</c><c>   1</c></rc>
    <rc><c>Li</c><c>   1</c></rc>
    <rc><c>Li</c><c>   1</c></rc>
    <rc><c>Li</c><c>   1</c></rc>
    <rc><c>Li</c><c>   1</c></rc>
    <rc><c>Li</c><c>   1</c></rc>
    <rc><c>Li</c><c>   1</c></rc>
    <rc><c>Li</c><c>   1</c></rc>
    <rc><c>Li</c><c>   1</c></rc>
    <rc><c>Li</c><c>   1</c></rc>
    <rc><c>Li</c><c>   1</c></rc>
    <rc><c>Li</c><c>   1</c></rc>
    <rc><c>Li</c><c>   1</c></rc>
    <rc><c>Li</c><c>   1</c></rc>
    <rc><c>Li</c><c>   1</c></rc>
    <rc><c>Li</c><c>   1</c></rc>
    <rc><c>Li</c><c>   1</c></rc>
    <rc><c>Li</c><c>   1</c></rc>
    <rc><c>Li</c><c>   1</c></rc>
    <rc><c>Li</c><c>   1</c></rc>
    <rc><c>Li</c><c>   1</c></rc>
    <rc><c>Li</c><c>   1</c></rc>
    <rc><c>Li</c><c>   1</c></rc>
    <rc><c>Li</c><c>   1</c></rc>
    <rc><c>Li</c><c>   1</c></rc>
    <rc><c>Li</c><c>   1</c></rc>
    <rc><c>Li</c><c>   1</c></rc>
    <rc><c>Li</c><c>   1</c></rc>
    <rc><c>Li</c><c>   1</c></rc>
    <rc><c>Li</c><c>   1</c></rc>
    <rc><c>Li</c><c>   1</c></rc>
    <rc><c>Li</c><c>   1</c></rc>
    <rc><c>Li</c><c>   1</c></rc>
    <rc><c>Li</c><c>   1</c></rc>
    <rc><c>Li</c><c>   1</c></rc>
    <rc><c>Li</c><c>   1</c></rc>
    <rc><c>Li</c><c>   1</c></rc>
    <rc><c>Li</c><c>   1</c></rc>
    <rc><c>Li</c><c>   1</c></rc>
    <rc><c>Li</c><c>   1</c></rc>
    <rc><c>Li</c><c>   1</c></rc>
    <rc><c>Fe</c><c>   2</c></rc>
    <rc><c>Fe</c><c>   2</c></rc>
    <rc><c>Fe</c><c>   2</c></rc>
    <rc><c>Fe</c><c>   2</c></rc>
    <rc><c>Fe</c><c>   2</c></rc>
    <rc><c>Fe</c><c>   2</c></rc>
    <rc><c>Fe</c><c>   2</c></rc>
    <rc><c>Fe</c><c>   2</c></rc>
    <rc><c>Fe</c><c>   2</c></rc>
    <rc><c>Fe</c><c>   2</c></rc>
    <rc><c>Fe</c><c>   2</c></rc>
    <rc><c>Fe</c><c>   2</c></rc>
    <rc><c>Fe</c><c>   2</c></rc>
    <rc><c>Fe</c><c>   2</c></rc>
    <rc><c>Fe</c><c>   2</c></rc>
    <rc><c>Fe</c><c>   2</c></rc>
    <rc><c>Fe</c><c>   2</c></rc>
    <rc><c>Fe</c><c>   2</c></rc>
    <rc><c>Fe</c><c>   2</c></rc>
    <rc><c>Fe</c><c>   2</c></rc>
    <rc><c>Fe</c><c>   2</c></rc>
    <rc><c>Fe</c><c>   2</c></rc>
    <rc><c>Fe</c><c>   2</c></rc>
    <rc><c>Fe</c><c>   2</c></rc>
    <rc><c>Fe</c><c>   2</c></rc>
    <rc><c>Fe</c><c>   2</c></rc>
    <rc><c>Fe</c><c>   2</c></rc>
    <rc><c>Fe</c><c>   2</c></rc>
    <rc><c>Fe</c><c>   2</c></rc>
    <rc><c>Fe</c><c>   2</c></rc>
    <rc><c>Fe</c><c>   2</c></rc>
    <rc><c>Fe</c><c>   2</c></rc>
    <rc><c>Fe</c><c>   2</c></rc>
    <rc><c>Fe</c><c>   2</c></rc>
    <rc><c>Fe</c><c>   2</c></rc>
    <rc><c>Fe</c><c>   2</c></rc>
    <rc><c>S </c><c>   3</c></rc>
    <rc><c>S </c><c>   3</c></rc>
    <rc><c>S </c><c>   3</c></rc>
    <rc><c>S </c><c>   3</c></rc>
    <rc><c>S </c><c>   3</c></rc>
    <rc><c>S </c><c>   3</c></rc>
    <rc><c>S </c><c>   3</c></rc>
    <rc><c>S </c><c>   3</c></rc>
    <rc><c>S </c><c>   3</c></rc>
    <rc><c>S </c><c>   3</c></rc>
    <rc><c>S </c><c>   3</c></rc>
    <rc><c>S </c><c>   3</c></rc>
    <rc><c>S </c><c>   3</c></rc>
    <rc><c>S </c><c>   3</c></rc>
    <rc><c>S </c><c>   3</c></rc>
    <rc><c>S </c><c>   3</c></rc>
    <rc><c>S </c><c>   3</c></rc>
    <rc><c>S </c><c>   3</c></rc>
    <rc><c>S </c><c>   3</c></rc>
    <rc><c>S </c><c>   3</c></rc>
    <rc><c>S </c><c>   3</c></rc>
    <rc><c>S </c><c>   3</c></rc>
    <rc><c>S </c><c>   3</c></rc>
    <rc><c>S </c><c>   3</c></rc>
    <rc><c>S </c><c>   3</c></rc>
    <rc><c>S </c><c>   3</c></rc>
    <rc><c>S </c><c>   3</c></rc>
    <rc><c>S </c><c>   3</c></rc>
    <rc><c>S </c><c>   3</c></rc>
    <rc><c>S </c><c>   3</c></rc>
    <rc><c>S </c><c>   3</c></rc>
    <rc><c>S </c><c>   3</c></rc>
    <rc><c>S </c><c>   3</c></rc>
    <rc><c>S </c><c>   3</c></rc>
    <rc><c>S </c><c>   3</c></rc>
    <rc><c>S </c><c>   3</c></rc>
    <rc><c>O </c><c>   4</c></rc>
    <rc><c>O </c><c>   4</c></rc>
    <rc><c>O </c><c>   4</c></rc>
    <rc><c>O </c><c>   4</c></rc>
    <rc><c>O </c><c>   4</c></rc>
    <rc><c>O </c><c>   4</c></rc>
    <rc><c>O </c><c>   4</c></rc>
    <rc><c>O </c><c>   4</c></rc>
    <rc><c>O </c><c>   4</c></rc>
    <rc><c>O </c><c>   4</c></rc>
    <rc><c>O </c><c>   4</c></rc>
    <rc><c>O </c><c>   4</c></rc>
    <rc><c>O </c><c>   4</c></rc>
    <rc><c>O </c><c>   4</c></rc>
    <rc><c>O </c><c>   4</c></rc>
    <rc><c>O </c><c>   4</c></rc>
    <rc><c>O </c><c>   4</c></rc>
    <rc><c>O </c><c>   4</c></rc>
    <rc><c>O </c><c>   4</c></rc>
    <rc><c>O </c><c>   4</c></rc>
    <rc><c>O </c><c>   4</c></rc>
    <rc><c>O </c><c>   4</c></rc>
    <rc><c>O </c><c>   4</c></rc>
    <rc><c>O </c><c>   4</c></rc>
   </set>
  </array>
  <array name="atomtypes" >
   <dimension dim="1">type</dimension>
   <field type="int">atomspertype</field>
   <field type="string">element</field>
   <field>mass</field>
   <field>valence</field>
   <field type="string">pseudopotential</field>
   <set>
    <rc><c>  48</c><c>Li</c><c>      7.01000000</c><c>      3.00000000</c><c>  PAW_PBE Li_sv 10Sep2004               </c></rc>
    <rc><c>  36</c><c>Fe</c><c>     55.84700000</c><c>     14.00000000</c><c>  PAW_PBE Fe_pv 02Aug2007               </c></rc>
    <rc><c>  36</c><c>S </c><c>     32.06600000</c><c>      6.00000000</c><c>  PAW_PBE S 06Sep2000                   </c></rc>
    <rc><c>  24</c><c>O </c><c>     16.00000000</c><c>      6.00000000</c><c>  PAW_PBE O 08Apr2002                   </c></rc>
   </set>
  </array>
 </atominfo>
 <structure name="initialpos" >
  <crystal>
   <varray name="basis" >
    <v>      15.21162830       0.00516956      -2.78361592 </v>
    <v>      -0.40798665      11.93565774      -2.20735884 </v>
    <v>      -0.06175567      -0.11168197      10.54442638 </v>
   </varray>
   <i name="volume">   1908.54869108 </i>
   <varray name="rec_basis" >
    <v>       0.06581343       0.00232549       0.00041008 </v>
    <v>       0.00013433       0.08395174       0.00088997 </v>
    <v>       0.01740216       0.01818827       0.09513139 </v>
   </varray>
  </crystal>
  <varray name="positions" >
   <v>       0.47527516       0.00156706       0.00446200 </v>
   <v>       0.97527516       0.00074367       0.00446200 </v>
   <v>       0.47527516       0.33407700       0.00446200 </v>
   <v>       0.97527516       0.33407700       0.00446200 </v>
   <v>       0.47527516       0.66741034       0.00446200 </v>
   <v>       0.97527516       0.66741034       0.00446200 </v>
   <v>       0.27472484       0.33258966       0.99553800 </v>
   <v>       0.77472484       0.33258966       0.99553800 </v>
   <v>       0.27472484       0.66592300       0.99553800 </v>
   <v>       0.77472484       0.66592300       0.99553800 </v>
   <v>       0.27472484       0.99925633       0.99553800 </v>
   <v>       0.77472484       0.99925633       0.99553800 </v>
   <v>       0.17788805       0.26797179       0.60783074 </v>
   <v>       0.67788805       0.26797179       0.60783074 </v>
   <v>       0.17788805       0.60130513       0.60783074 </v>
   <v>       0.67788805       0.60130513       0.60783074 </v>
   <v>       0.17788805       0.93463846       0.60783074 </v>
   <v>       0.67788805       0.93463846       0.60783074 </v>
   <v>       0.07211195       0.06536154       0.39216926 </v>
   <v>       0.57211195       0.06536154       0.39216926 </v>
   <v>       0.07211195       0.39869487       0.39216926 </v>
   <v>       0.57211195       0.39869487       0.39216926 </v>
   <v>       0.07211195       0.73202821       0.39216926 </v>
   <v>       0.57211195       0.73202821       0.39216926 </v>
   <v>       0.10733875       0.30765571       0.84593428 </v>
   <v>       0.60733875       0.30765571       0.84593428 </v>
   <v>       0.10733875       0.64098905       0.84593428 </v>
   <v>       0.60733875       0.64098905       0.84593428 </v>
   <v>       0.10733875       0.97432238       0.84593428 </v>
   <v>       0.60733875       0.97432238       0.84593428 </v>
   <v>       0.34464416       0.29539312       0.77235872 </v>
   <v>       0.84464416       0.29539312       0.77235872 </v>
   <v>       0.34464416       0.62872645       0.77235872 </v>
   <v>       0.84464416       0.62872645       0.77235872 </v>
   <v>       0.34464416       0.96205979       0.77235872 </v>
   <v>       0.84464416       0.96205979       0.77235872 </v>
   <v>       0.14266125       0.02567762       0.15406572 </v>
   <v>       0.64266125       0.02567762       0.15406572 </v>
   <v>       0.14266125       0.35901095       0.15406572 </v>
   <v>       0.64266125       0.35901095       0.15406572 </v>
   <v>       0.14266125       0.69234429       0.15406572 </v>
   <v>       0.64266125       0.69234429       0.15406572 </v>
   <v>       0.40535584       0.03794021       0.22764128 </v>
   <v>       0.90535584       0.03794021       0.22764128 </v>
   <v>       0.40535584       0.37127355       0.22764128 </v>
   <v>       0.90535584       0.37127355       0.22764128 </v>
   <v>       0.40535584       0.70460688       0.22764128 </v>
   <v>       0.90535584       0.70460688       0.22764128 </v>
   <v>       0.46517249       0.26691416       0.60148498 </v>
   <v>       0.96517249       0.26691416       0.60148498 </v>
   <v>       0.46517249       0.60024750       0.60148498 </v>
   <v>       0.96517249       0.60024750       0.60148498 </v>
   <v>       0.46517249       0.93358083       0.60148498 </v>
   <v>       0.96517249       0.93358083       0.60148498 </v>
   <v>       0.28482751       0.06641917       0.39851502 </v>
   <v>       0.78482751       0.06641917       0.39851502 </v>
   <v>       0.28482751       0.39975250       0.39851502 </v>
   <v>       0.78482751       0.39975250       0.39851502 </v>
   <v>       0.28482751       0.73308584       0.39851502 </v>
   <v>       0.78482751       0.73308584       0.39851502 </v>
   <v>       0.22447416       0.13353711       0.80122268 </v>
   <v>       0.72447416       0.13353711       0.80122268 </v>
   <v>       0.22447416       0.46687045       0.80122268 </v>
   <v>       0.72447416       0.46687045       0.80122268 </v>
   <v>       0.22447416       0.80020378       0.80122268 </v>
   <v>       0.72447416       0.80020378       0.80122268 </v>
   <v>       0.47796479       0.13582521       0.81495126 </v>
   <v>       0.97796479       0.13582521       0.81495126 </v>
   <v>       0.47796479       0.46915854       0.81495126 </v>
   <v>       0.97796479       0.46915854       0.81495126 </v>
   <v>       0.47796479       0.80249188       0.81495126 </v>
   <v>       0.97796479       0.80249188       0.81495126 </v>
   <v>       0.02552584       0.19979622       0.19877732 </v>
   <v>       0.52552584       0.19979622       0.19877732 </v>
   <v>       0.02552584       0.53312955       0.19877732 </v>
   <v>       0.52552584       0.53312955       0.19877732 </v>
   <v>       0.02552584       0.86646289       0.19877732 </v>
   <v>       0.52552584       0.86646289       0.19877732 </v>
   <v>       0.27203521       0.19750812       0.18504874 </v>
   <v>       0.77203521       0.19750812       0.18504874 </v>
   <v>       0.27203521       0.53084146       0.18504874 </v>
   <v>       0.77203521       0.53084146       0.18504874 </v>
   <v>       0.27203521       0.86417479       0.18504874 </v>
   <v>       0.77203521       0.86417479       0.18504874 </v>
   <v>       0.12500000       0.16666667       0.00000000 </v>
   <v>       0.62500000       0.16666667       0.00000000 </v>
   <v>       0.12500000       0.50000000       0.00000000 </v>
   <v>       0.62500000       0.50000000       0.00000000 </v>
   <v>       0.12500000       0.83333333       0.00000000 </v>
   <v>       0.62500000       0.83333333       0.00000000 </v>
   <v>       0.37500000       0.16666667       0.00000000 </v>
   <v>       0.87500000       0.16666667       0.00000000 </v>
   <v>       0.37500000       0.50000000       0.00000000 </v>
   <v>       0.87500000       0.50000000       0.00000000 </v>
   <v>       0.37500000       0.83333333       0.00000000 </v>
   <v>       0.87500000       0.83333333       0.00000000 </v>
   <v>       0.17614737       0.22809805       0.36858830 </v>
   <v>       0.67614737       0.22809805       0.36858830 </v>
   <v>       0.17614737       0.56143138       0.36858830 </v>
   <v>       0.67614737       0.56143138       0.36858830 </v>
   <v>       0.17614737       0.89476472       0.36858830 </v>
   <v>       0.67614737       0.89476472       0.36858830 </v>
   <v>       0.41542106       0.22793643       0.36761855 </v>
   <v>       0.91542106       0.22793643       0.36761855 </v>
   <v>       0.41542106       0.56126976       0.36761855 </v>
   <v>       0.91542106       0.56126976       0.36761855 </v>
   <v>       0.41542106       0.89460309       0.36761855 </v>
   <v>       0.91542106       0.89460309       0.36761855 </v>
   <v>       0.07385263       0.10523528       0.63141170 </v>
   <v>       0.57385263       0.10523528       0.63141170 </v>
   <v>       0.07385263       0.43856862       0.63141170 </v>
   <v>       0.57385263       0.43856862       0.63141170 </v>
   <v>       0.07385263       0.77190195       0.63141170 </v>
   <v>       0.57385263       0.77190195       0.63141170 </v>
   <v>       0.33457894       0.10539691       0.63238145 </v>
   <v>       0.83457894       0.10539691       0.63238145 </v>
   <v>       0.33457894       0.43873024       0.63238145 </v>
   <v>       0.83457894       0.43873024       0.63238145 </v>
   <v>       0.33457894       0.77206357       0.63238145 </v>
   <v>       0.83457894       0.77206357       0.63238145 </v>
   <v>       0.22527003       0.30093342       0.80560053 </v>
   <v>       0.72527003       0.30093342       0.80560053 </v>
   <v>       0.22527003       0.63426676       0.80560053 </v>
   <v>       0.72527003       0.63426676       0.80560053 </v>
   <v>       0.22527003       0.96760009       0.80560053 </v>
   <v>       0.72527003       0.96760009       0.80560053 </v>
   <v>       0.47618324       0.30143353       0.80860116 </v>
   <v>       0.97618324       0.30143353       0.80860116 </v>
   <v>       0.47618324       0.63476686       0.80860116 </v>
   <v>       0.97618324       0.63476686       0.80860116 </v>
   <v>       0.47618324       0.96810019       0.80860116 </v>
   <v>       0.97618324       0.96810019       0.80860116 </v>
   <v>       0.02472997       0.03239991       0.19439947 </v>
   <v>       0.52472997       0.03239991       0.19439947 </v>
   <v>       0.02472997       0.36573324       0.19439947 </v>
   <v>       0.52472997       0.36573324       0.19439947 </v>
   <v>       0.02472997       0.69906658       0.19439947 </v>
   <v>       0.52472997       0.69906658       0.19439947 </v>
   <v>       0.27381676       0.03189981       0.19139884 </v>
   <v>       0.77381676       0.03189981       0.19139884 </v>
   <v>       0.27381676       0.36523314       0.19139884 </v>
   <v>       0.77381676       0.36523314       0.19139884 </v>
   <v>       0.27381676       0.69856647       0.19139884 </v>
   <v>       0.77381676       0.69856647       0.19139884 </v>
  </varray>
 </structure>
 <calculation>
  <scstep>
   <time name="dav">  339.32  342.75</time>
   <time name="total">  341.90  345.38</time>
   <energy>
    <i name="alphaZ">   2668.72143546 </i>
    <i name="ewald"> -68025.90217619 </i>
    <i name="hartreedc"> -39875.37179596 </i>
    <i name="XCdc">   4298.62085843 </i>
    <i name="pawpsdc"> 114383.84820647 </i>
    <i name="pawaedc">-118048.71515856 </i>
    <i name="eentropy">     -0.02968145 </i>
    <i name="bandstr">   -564.33832772 </i>
    <i name="atom"> 118542.86816856 </i>
    <i name="e_fr_energy">  13379.70152905 </i>
    <i name="e_wo_entrp">  13379.73121050 </i>
    <i name="e_0_energy">  13379.71636977 </i>
   </energy>
  </scstep>
  <scstep>
   <time name="dav">  327.59  330.90</time>
   <time name="total">  327.59  330.91</time>
   <energy>
    <i name="e_fr_energy">   1421.87061691 </i>
    <i name="e_wo_entrp">   1421.95535669 </i>
    <i name="e_0_energy">   1421.91298680 </i>
   </energy>
  </scstep>
  <scstep>
   <time name="dav">  353.77  357.61</time>
   <time name="total">  353.77  357.61</time>
   <energy>
    <i name="e_fr_energy">   -473.21292608 </i>
    <i name="e_wo_entrp">   -473.21292608 </i>
    <i name="e_0_energy">   -473.21292608 </i>
   </energy>
  </scstep>
  <scstep>
   <time name="dav">  395.86  399.95</time>
   <time name="total">  395.86  399.95</time>
   <energy>
    <i name="e_fr_energy">   -716.03305912 </i>
    <i name="e_wo_entrp">   -716.03305912 </i>
    <i name="e_0_energy">   -716.03305912 </i>
   </energy>
  </scstep>
  <scstep>
   <time name="dav">  520.47  525.51</time>
   <time name="total">  531.36  536.56</time>
   <energy>
    <i name="e_fr_energy">   -745.37072801 </i>
    <i name="e_wo_entrp">   -745.37072801 </i>
    <i name="e_0_energy">   -745.37072801 </i>
   </energy>
  </scstep>
  <scstep>
   <time name="dav">  415.91  420.16</time>
   <time name="total">  429.63  433.96</time>
   <energy>
    <i name="e_fr_energy">   -746.58273266 </i>
    <i name="e_wo_entrp">   -746.58273266 </i>
    <i name="e_0_energy">   -746.58273266 </i>
   </energy>
  </scstep>
  <scstep>
   <time name="dav">  471.24  476.23</time>
   <time name="total">  484.84  490.01</time>
   <energy>
    <i name="e_fr_energy">   -746.63653541 </i>
    <i name="e_wo_entrp">   -746.63653541 </i>
    <i name="e_0_energy">   -746.63653541 </i>
   </energy>
  </scstep>
  <scstep>
   <time name="dav">  443.61  447.87</time>
   <time name="total">  457.25  461.66</time>
   <energy>
    <i name="e_fr_energy">   -746.63575159 </i>
    <i name="e_wo_entrp">   -746.63575159 </i>
    <i name="e_0_energy">   -746.63575159 </i>
   </energy>
  </scstep>
  <scstep>
   <time name="dav">  474.15  479.71</time>
   <time name="total">  487.73  493.54</time>
   <energy>
    <i name="e_fr_energy">   -746.63515083 </i>
    <i name="e_wo_entrp">   -746.63515083 </i>
    <i name="e_0_energy">   -746.63515083 </i>
   </energy>
  </scstep>
  <scstep>
   <time name="dav">  471.05  476.46</time>
   <time name="total">  484.75  490.28</time>
   <energy>
    <i name="e_fr_energy">   -746.63424237 </i>
    <i name="e_wo_entrp">   -746.63424237 </i>
    <i name="e_0_energy">   -746.63424237 </i>
   </energy>
  </scstep>
  <scstep>
   <time name="dav">  491.56  496.09</time>
   <time name="total">  505.24  509.88</time>
   <energy>
    <i name="e_fr_energy">   -746.63213353 </i>
    <i name="e_wo_entrp">   -746.63213353 </i>
    <i name="e_0_energy">   -746.63213353 </i>
   </energy>
  </scstep>
  <scstep>
   <time name="dav">  370.38  373.85</time>
   <time name="total">  383.97  387.71</time>
   <energy>
    <i name="e_fr_energy">   -746.63165638 </i>
    <i name="e_wo_entrp">   -746.63165638 </i>
    <i name="e_0_energy">   -746.63165638 </i>
   </energy>
  </scstep>
  <scstep>
   <time name="dav">  428.77  433.42</time>
   <time name="total">  442.36  447.19</time>
   <energy>
    <i name="e_fr_energy">   -746.63143573 </i>
    <i name="e_wo_entrp">   -746.63143573 </i>
    <i name="e_0_energy">   -746.63143573 </i>
   </energy>
  </scstep>
  <scstep>
   <time name="dav">  418.48  422.93</time>
   <time name="total">  432.18  436.74</time>
   <energy>
    <i name="e_fr_energy">   -746.63138609 </i>
    <i name="e_wo_entrp">   -746.63138609 </i>
    <i name="e_0_energy">   -746.63138609 </i>
   </energy>
  </scstep>
  <scstep>
   <time name="dav">  311.78  315.03</time>
   <time name="total">  325.44  328.79</time>
   <energy>
    <i name="e_fr_energy">   -746.63128983 </i>
    <i name="e_wo_entrp">   -746.63128983 </i>
    <i name="e_0_energy">   -746.63128983 </i>
   </energy>
  </scstep>
  <scstep>
   <time name="dav">  465.74  470.72</time>
   <time name="total">  479.48  484.60</time>
   <energy>
    <i name="e_fr_energy">   -746.63107574 </i>
    <i name="e_wo_entrp">   -746.63107574 </i>
    <i name="e_0_energy">   -746.63107574 </i>
   </energy>
  </scstep>
  <scstep>
   <time name="dav">  368.99  372.65</time>
   <time name="total">  382.65  386.55</time>
   <energy>
    <i name="e_fr_energy">   -746.63107009 </i>
    <i name="e_wo_entrp">   -746.63107009 </i>
    <i name="e_0_energy">   -746.63107009 </i>
   </energy>
  </scstep>
  <scstep>
   <time name="dav">  372.92  378.92</time>
   <time name="total">  386.49  392.80</time>
   <energy>
    <i name="e_fr_energy">   -746.63107193 </i>
    <i name="e_wo_entrp">   -746.63107193 </i>
    <i name="e_0_energy">   -746.63107193 </i>
   </energy>
  </scstep>
  <scstep>
   <time name="dav">  244.99  249.51</time>
   <time name="total">  247.57  252.17</time>
   <energy>
    <i name="alphaZ">   2668.72143546 </i>
    <i name="ewald"> -68025.90217619 </i>
    <i name="hartreedc"> -39875.32271168 </i>
    <i name="XCdc">   4298.61011680 </i>
    <i name="pawpsdc"> 114379.15224063 </i>
    <i name="pawaedc">-118043.92664603 </i>
    <i name="eentropy">     -0.00000000 </i>
    <i name="bandstr"> -14690.83149999 </i>
    <i name="atom"> 118542.86816856 </i>
    <i name="e_fr_energy">   -746.63107243 </i>
    <i name="e_wo_entrp">   -746.63107243 </i>
    <i name="e_0_energy">   -746.63107243 </i>
   </energy>
  </scstep>
  <structure>
   <crystal>
    <varray name="basis" >
     <v>      15.21162830       0.00516956      -2.78361592 </v>
     <v>      -0.40798665      11.93565774      -2.20735884 </v>
     <v>      -0.06175567      -0.11168197      10.54442638 </v>
    </varray>
    <i name="volume">   1908.54869108 </i>
    <varray name="rec_basis" >
     <v>       0.06581343       0.00232549       0.00041008 </v>
     <v>       0.00013433       0.08395174       0.00088997 </v>
     <v>       0.01740216       0.01818827       0.09513139 </v>
    </varray>
   </crystal>
   <varray name="positions" >
    <v>       0.47527516       0.00156706       0.00446200 </v>
    <v>       0.97527516       0.00074367       0.00446200 </v>
    <v>       0.47527516       0.33407700       0.00446200 </v>
    <v>       0.97527516       0.33407700       0.00446200 </v>
    <v>       0.47527516       0.66741034       0.00446200 </v>
    <v>       0.97527516       0.66741034       0.00446200 </v>
    <v>       0.27472484       0.33258966       0.99553800 </v>
    <v>       0.77472484       0.33258966       0.99553800 </v>
    <v>       0.27472484       0.66592300       0.99553800 </v>
    <v>       0.77472484       0.66592300       0.99553800 </v>
    <v>       0.27472484       0.99925633       0.99553800 </v>
    <v>       0.77472484       0.99925633       0.99553800 </v>
    <v>       0.17788805       0.26797179       0.60783074 </v>
    <v>       0.67788805       0.26797179       0.60783074 </v>
    <v>       0.17788805       0.60130513       0.60783074 </v>
    <v>       0.67788805       0.60130513       0.60783074 </v>
    <v>       0.17788805       0.93463846       0.60783074 </v>
    <v>       0.67788805       0.93463846       0.60783074 </v>
    <v>       0.07211195       0.06536154       0.39216926 </v>
    <v>       0.57211195       0.06536154       0.39216926 </v>
    <v>       0.07211195       0.39869487       0.39216926 </v>
    <v>       0.57211195       0.39869487       0.39216926 </v>
    <v>       0.07211195       0.73202821       0.39216926 </v>
    <v>       0.57211195       0.73202821       0.39216926 </v>
    <v>       0.10733875       0.30765571       0.84593428 </v>
    <v>       0.60733875       0.30765571       0.84593428 </v>
    <v>       0.10733875       0.64098905       0.84593428 </v>
    <v>       0.60733875       0.64098905       0.84593428 </v>
    <v>       0.10733875       0.97432238       0.84593428 </v>
    <v>       0.60733875       0.97432238       0.84593428 </v>
    <v>       0.34464416       0.29539312       0.77235872 </v>
    <v>       0.84464416       0.29539312       0.77235872 </v>
    <v>       0.34464416       0.62872645       0.77235872 </v>
    <v>       0.84464416       0.62872645       0.77235872 </v>
    <v>       0.34464416       0.96205979       0.77235872 </v>
    <v>       0.84464416       0.96205979       0.77235872 </v>
    <v>       0.14266125       0.02567762       0.15406572 </v>
    <v>       0.64266125       0.02567762       0.15406572 </v>
    <v>       0.14266125       0.35901095       0.15406572 </v>
    <v>       0.64266125       0.35901095       0.15406572 </v>
    <v>       0.14266125       0.69234429       0.15406572 </v>
    <v>       0.64266125       0.69234429       0.15406572 </v>
    <v>       0.40535584       0.03794021       0.22764128 </v>
    <v>       0.90535584       0.03794021       0.22764128 </v>
    <v>       0.40535584       0.37127355       0.22764128 </v>
    <v>       0.90535584       0.37127355       0.22764128 </v>
    <v>       0.40535584       0.70460688       0.22764128 </v>
    <v>       0.90535584       0.70460688       0.22764128 </v>
    <v>       0.46517249       0.26691416       0.60148498 </v>
    <v>       0.96517249       0.26691416       0.60148498 </v>
    <v>       0.46517249       0.60024750       0.60148498 </v>
    <v>       0.96517249       0.60024750       0.60148498 </v>
    <v>       0.46517249       0.93358083       0.60148498 </v>
    <v>       0.96517249       0.93358083       0.60148498 </v>
    <v>       0.28482751       0.06641917       0.39851502 </v>
    <v>       0.78482751       0.06641917       0.39851502 </v>
    <v>       0.28482751       0.39975250       0.39851502 </v>
    <v>       0.78482751       0.39975250       0.39851502 </v>
    <v>       0.28482751       0.73308584       0.39851502 </v>
    <v>       0.78482751       0.73308584       0.39851502 </v>
    <v>       0.22447416       0.13353711       0.80122268 </v>
    <v>       0.72447416       0.13353711       0.80122268 </v>
    <v>       0.22447416       0.46687045       0.80122268 </v>
    <v>       0.72447416       0.46687045       0.80122268 </v>
    <v>       0.22447416       0.80020378       0.80122268 </v>
    <v>       0.72447416       0.80020378       0.80122268 </v>
    <v>       0.47796479       0.13582521       0.81495126 </v>
    <v>       0.97796479       0.13582521       0.81495126 </v>
    <v>       0.47796479       0.46915854       0.81495126 </v>
    <v>       0.97796479       0.46915854       0.81495126 </v>
    <v>       0.47796479       0.80249188       0.81495126 </v>
    <v>       0.97796479       0.80249188       0.81495126 </v>
    <v>       0.02552584       0.19979622       0.19877732 </v>
    <v>       0.52552584       0.19979622       0.19877732 </v>
    <v>       0.02552584       0.53312955       0.19877732 </v>
    <v>       0.52552584       0.53312955       0.19877732 </v>
    <v>       0.02552584       0.86646289       0.19877732 </v>
    <v>       0.52552584       0.86646289       0.19877732 </v>
    <v>       0.27203521       0.19750812       0.18504874 </v>
    <v>       0.77203521       0.19750812       0.18504874 </v>
    <v>       0.27203521       0.53084146       0.18504874 </v>
    <v>       0.77203521       0.53084146       0.18504874 </v>
    <v>       0.27203521       0.86417479       0.18504874 </v>
    <v>       0.77203521       0.86417479       0.18504874 </v>
    <v>       0.12500000       0.16666667       0.00000000 </v>
    <v>       0.62500000       0.16666667       0.00000000 </v>
    <v>       0.12500000       0.50000000       0.00000000 </v>
    <v>       0.62500000       0.50000000       0.00000000 </v>
    <v>       0.12500000       0.83333333       0.00000000 </v>
    <v>       0.62500000       0.83333333       0.00000000 </v>
    <v>       0.37500000       0.16666667       0.00000000 </v>
    <v>       0.87500000       0.16666667       0.00000000 </v>
    <v>       0.37500000       0.50000000       0.00000000 </v>
    <v>       0.87500000       0.50000000       0.00000000 </v>
    <v>       0.37500000       0.83333333       0.00000000 </v>
    <v>       0.87500000       0.83333333       0.00000000 </v>
    <v>       0.17614737       0.22809805       0.36858830 </v>
    <v>       0.67614737       0.22809805       0.36858830 </v>
    <v>       0.17614737       0.56143138       0.36858830 </v>
    <v>       0.67614737       0.56143138       0.36858830 </v>
    <v>       0.17614737       0.89476472       0.36858830 </v>
    <v>       0.67614737       0.89476472       0.36858830 </v>
    <v>       0.41542106       0.22793643       0.36761855 </v>
    <v>       0.91542106       0.22793643       0.36761855 </v>
    <v>       0.41542106       0.56126976       0.36761855 </v>
    <v>       0.91542106       0.56126976       0.36761855 </v>
    <v>       0.41542106       0.89460309       0.36761855 </v>
    <v>       0.91542106       0.89460309       0.36761855 </v>
    <v>       0.07385263       0.10523528       0.63141170 </v>
    <v>       0.57385263       0.10523528       0.63141170 </v>
    <v>       0.07385263       0.43856862       0.63141170 </v>
    <v>       0.57385263       0.43856862       0.63141170 </v>
    <v>       0.07385263       0.77190195       0.63141170 </v>
    <v>       0.57385263       0.77190195       0.63141170 </v>
    <v>       0.33457894       0.10539691       0.63238145 </v>
    <v>       0.83457894       0.10539691       0.63238145 </v>
    <v>       0.33457894       0.43873024       0.63238145 </v>
    <v>       0.83457894       0.43873024       0.63238145 </v>
    <v>       0.33457894       0.77206357       0.63238145 </v>
    <v>       0.83457894       0.77206357       0.63238145 </v>
    <v>       0.22527003       0.30093342       0.80560053 </v>
    <v>       0.72527003       0.30093342       0.80560053 </v>
    <v>       0.22527003       0.63426676       0.80560053 </v>
    <v>       0.72527003       0.63426676       0.80560053 </v>
    <v>       0.22527003       0.96760009       0.80560053 </v>
    <v>       0.72527003       0.96760009       0.80560053 </v>
    <v>       0.47618324       0.30143353       0.80860116 </v>
    <v>       0.97618324       0.30143353       0.80860116 </v>
    <v>       0.47618324       0.63476686       0.80860116 </v>
    <v>       0.97618324       0.63476686       0.80860116 </v>
    <v>       0.47618324       0.96810019       0.80860116 </v>
    <v>       0.97618324       0.96810019       0.80860116 </v>
    <v>       0.02472997       0.03239991       0.19439947 </v>
    <v>       0.52472997       0.03239991       0.19439947 </v>
    <v>       0.02472997       0.36573324       0.19439947 </v>
    <v>       0.52472997       0.36573324       0.19439947 </v>
    <v>       0.02472997       0.69906658       0.19439947 </v>
    <v>       0.52472997       0.69906658       0.19439947 </v>
    <v>       0.27381676       0.03189981       0.19139884 </v>
    <v>       0.77381676       0.03189981       0.19139884 </v>
    <v>       0.27381676       0.36523314       0.19139884 </v>
    <v>       0.77381676       0.36523314       0.19139884 </v>
    <v>       0.27381676       0.69856647       0.19139884 </v>
    <v>       0.77381676       0.69856647       0.19139884 </v>
   </varray>
  </structure>
  <varray name="forces" >
   <v>       0.00122813      -0.02556230       0.00456274 </v>
   <v>       0.00013099      -0.00042675      -0.00009758 </v>
   <v>       0.00035628       0.00109564      -0.00039040 </v>
   <v>       0.00010867       0.00004075      -0.00015769 </v>
   <v>      -0.00016879       0.00108542      -0.00032221 </v>
   <v>       0.00015771       0.00004178      -0.00016396 </v>
   <v>      -0.00071050       0.00110733       0.00007242 </v>
   <v>       0.00026812       0.00056144      -0.00001691 </v>
   <v>       0.00037685       0.00110554      -0.00015017 </v>
   <v>      -0.00056804       0.00056711       0.00013697 </v>
   <v>      -0.00007325      -0.00172301       0.00046316 </v>
   <v>      -0.00012024      -0.00054797       0.00025624 </v>
   <v>      -0.00051834       0.00048693       0.00003255 </v>
   <v>      -0.00045072       0.00050269       0.00011398 </v>
   <v>      -0.00036905       0.00056116       0.00023161 </v>
   <v>      -0.00044299       0.00057059       0.00019871 </v>
   <v>      -0.00044119       0.00024187       0.00009821 </v>
   <v>      -0.00044199       0.00022185       0.00005621 </v>
   <v>       0.00044288      -0.00057047      -0.00013762 </v>
   <v>       0.00045066      -0.00075141      -0.00017608 </v>
   <v>       0.00043639      -0.00033130      -0.00011135 </v>
   <v>       0.00048166      -0.00031421      -0.00001588 </v>
   <v>       0.00044749      -0.00037488      -0.00010887 </v>
   <v>       0.00040266      -0.00037273      -0.00013935 </v>
   <v>      -0.00044967       0.00020961      -0.00022417 </v>
   <v>      -0.00035270       0.00055030      -0.00062219 </v>
   <v>      -0.00016120       0.00023036      -0.00022990 </v>
   <v>      -0.00028107       0.00070322       0.00001463 </v>
   <v>      -0.00027900      -0.00014831      -0.00016757 </v>
   <v>      -0.00027193      -0.00133081       0.00006585 </v>
   <v>      -0.00143400       0.00016788      -0.00062522 </v>
   <v>      -0.00125503      -0.00020153      -0.00008071 </v>
   <v>      -0.00124667       0.00041738       0.00037734 </v>
   <v>      -0.00139015      -0.00015196      -0.00000081 </v>
   <v>      -0.00125039      -0.00172564       0.00023452 </v>
   <v>      -0.00133282      -0.00039046      -0.00002008 </v>
   <v>       0.00032519      -0.00036180       0.00024256 </v>
   <v>       0.00033735      -0.00169494       0.00049130 </v>
   <v>       0.00018397       0.00004566       0.00022792 </v>
   <v>       0.00038689       0.00048851       0.00041802 </v>
   <v>       0.00042059       0.00001080       0.00014375 </v>
   <v>       0.00019569       0.00035581      -0.00019449 </v>
   <v>       0.00139380      -0.00142082       0.00030571 </v>
   <v>       0.00130295       0.00010769       0.00006494 </v>
   <v>       0.00136001       0.00089889       0.00044139 </v>
   <v>       0.00139108       0.00032766       0.00004230 </v>
   <v>       0.00122439       0.00064845      -0.00055468 </v>
   <v>       0.00124659       0.00029541      -0.00000067 </v>
   <v>       0.00009318       0.00054839      -0.00019572 </v>
   <v>      -0.00000956       0.00054881      -0.00016855 </v>
   <v>      -0.00002578       0.00069695       0.00006405 </v>
   <v>      -0.00000466       0.00061932      -0.00016916 </v>
   <v>      -0.00010219      -0.00022938      -0.00038119 </v>
   <v>      -0.00002614       0.00016718      -0.00024671 </v>
   <v>      -0.00007565      -0.00089227      -0.00004393 </v>
   <v>      -0.00000345      -0.00081190       0.00016562 </v>
   <v>      -0.00000255      -0.00012837       0.00046518 </v>
   <v>       0.00006832      -0.00019202       0.00035430 </v>
   <v>       0.00012710      -0.00028283       0.00014887 </v>
   <v>      -0.00002794      -0.00030930       0.00004692 </v>
   <v>      -0.00132170      -0.00100976      -0.00080707 </v>
   <v>       0.00058216      -0.00072326      -0.00066921 </v>
   <v>       0.00002083       0.00071438       0.00006263 </v>
   <v>       0.00005714       0.00038856       0.00011849 </v>
   <v>       0.00150397      -0.00050957       0.00136928 </v>
   <v>      -0.00044807      -0.00041085       0.00116135 </v>
   <v>      -0.00021081       0.00204719      -0.00827896 </v>
   <v>      -0.00034119      -0.00010619      -0.00038187 </v>
   <v>      -0.00026536       0.00098018      -0.00028686 </v>
   <v>      -0.00022921       0.00017344      -0.00015719 </v>
   <v>      -0.00052079       0.00480987       0.00656565 </v>
   <v>      -0.00014755      -0.00002934       0.00008359 </v>
   <v>      -0.00009450       0.00017840       0.00000784 </v>
   <v>       0.00236487       0.00431367       0.00567898 </v>
   <v>      -0.00005022       0.00038147      -0.00020201 </v>
   <v>      -0.00011270       0.00130953      -0.00035623 </v>
   <v>      -0.00004404       0.00005705      -0.00040468 </v>
   <v>      -0.00264554       0.00176001      -0.00708150 </v>
   <v>      -0.00077583      -0.00020984       0.00182183 </v>
   <v>       0.00111778      -0.00017545       0.00096399 </v>
   <v>       0.00022714       0.00083338       0.00004125 </v>
   <v>       0.00022260       0.00052893       0.00007489 </v>
   <v>       0.00127425      -0.00081162      -0.00138226 </v>
   <v>      -0.00061859      -0.00053634      -0.00055253 </v>
   <v>       0.00065502       0.00015454      -0.00011107 </v>
   <v>      -0.00263092      -0.00100713       0.00060377 </v>
   <v>       0.00000248      -0.00027224       0.00002721 </v>
   <v>       0.00001945      -0.00072170       0.00010787 </v>
   <v>      -0.00065831       0.00015231       0.00006429 </v>
   <v>       0.00269403      -0.00099771      -0.00020731 </v>
   <v>      -0.00162714       0.00417969      -0.00061631 </v>
   <v>      -0.00039461       0.00012682       0.00006856 </v>
   <v>       0.00003995      -0.00114050       0.00017693 </v>
   <v>       0.00000683      -0.00020838       0.00002462 </v>
   <v>       0.00115111       0.00397902      -0.00082781 </v>
   <v>       0.00037158       0.00010902      -0.00009323 </v>
   <v>       0.00012793      -0.00037977       0.00002548 </v>
   <v>      -0.00012722      -0.00030861      -0.00017511 </v>
   <v>      -0.00000603      -0.00070090       0.00015921 </v>
   <v>       0.00004385      -0.00072949       0.00017412 </v>
   <v>      -0.00006051      -0.00012486       0.00028168 </v>
   <v>       0.00015034      -0.00006425       0.00044490 </v>
   <v>       0.00000330      -0.00031341      -0.00058565 </v>
   <v>       0.00003910      -0.00030517      -0.00012631 </v>
   <v>       0.00010903      -0.00070086      -0.00003781 </v>
   <v>       0.00009900      -0.00048778      -0.00000795 </v>
   <v>       0.00019192       0.00015738       0.00057903 </v>
   <v>       0.00017533      -0.00015972       0.00009143 </v>
   <v>       0.00011132       0.00056647      -0.00006764 </v>
   <v>       0.00000582       0.00082118       0.00014641 </v>
   <v>      -0.00001201       0.00014736      -0.00013261 </v>
   <v>      -0.00003517      -0.00000650      -0.00014651 </v>
   <v>      -0.00016748       0.00042886      -0.00026102 </v>
   <v>      -0.00003881       0.00046538      -0.00047927 </v>
   <v>       0.00000083       0.00069987       0.00060599 </v>
   <v>      -0.00013275       0.00047870       0.00012467 </v>
   <v>      -0.00008431      -0.00009305      -0.00000894 </v>
   <v>      -0.00012978       0.00013292      -0.00001119 </v>
   <v>      -0.00022561       0.00027592      -0.00056404 </v>
   <v>      -0.00004790       0.00032209      -0.00008095 </v>
   <v>       0.00068263      -0.00086732       0.00070570 </v>
   <v>      -0.00024356      -0.00051593       0.00058995 </v>
   <v>      -0.00067984      -0.00116840      -0.00025649 </v>
   <v>       0.00024526      -0.00074815      -0.00029522 </v>
   <v>      -0.00010031       0.00189814      -0.00028966 </v>
   <v>      -0.00005270       0.00124856      -0.00016929 </v>
   <v>      -0.00044917      -0.00116151       0.00086365 </v>
   <v>      -0.00039049      -0.00031594      -0.00011703 </v>
   <v>      -0.00033902      -0.00158345      -0.00091678 </v>
   <v>      -0.00043934      -0.00040283      -0.00026079 </v>
   <v>      -0.00063893       0.00602040      -0.00128780 </v>
   <v>      -0.00043063       0.00033942      -0.00032971 </v>
   <v>       0.00001577       0.00041339      -0.00005267 </v>
   <v>      -0.00023310       0.00689846      -0.00133066 </v>
   <v>       0.00003243      -0.00038820      -0.00003626 </v>
   <v>      -0.00024641      -0.00164533      -0.00043067 </v>
   <v>       0.00001516      -0.00029033       0.00007822 </v>
   <v>       0.00039611      -0.00129312       0.00087634 </v>
   <v>       0.00037987       0.00186490      -0.00003440 </v>
   <v>       0.00041074       0.00121688       0.00003027 </v>
   <v>       0.00087599      -0.00109492      -0.00036454 </v>
   <v>       0.00007831      -0.00066956      -0.00005977 </v>
   <v>       0.00005772      -0.00072631       0.00115201 </v>
   <v>       0.00083126      -0.00043916       0.00075664 </v>
  </varray>
  <varray name="stress" >
   <v>      -0.12160676       0.01017883       0.02063601 </v>
   <v>       0.00021151      -0.14798213      -0.07392422 </v>
   <v>      -0.01798928      -0.04504831      -0.10395171 </v>
  </varray>
  <energy>
   <i name="e_fr_energy">   -746.63107243 </i>
   <i name="e_wo_entrp">   -746.63107243 </i>
   <i name="e_0_energy">     -0.00000000 </i>
  </energy>
  <time name="totalsc"> 8461.71 8556.82</time>
  <eigenvalues>
   <array>
    <dimension dim="1">band</dimension>
    <dimension dim="2">kpoint</dimension>
    <dimension dim="3">spin</dimension>
    <field>eigene</field>
    <field>occ</field>
    <set>
     <set comment="spin 1">
      <set comment="kpoint 1">
       <r>  -51.6031    1.0000 </r>
       <r>  -51.6030    1.0000 </r>
       <r>  -51.6029    1.0000 </r>
       <r>  -51.6028    1.0000 </r>
       <r>  -51.6027    1.0000 </r>
       <r>  -51.6027    1.0000 </r>
       <r>  -51.6026    1.0000 </r>
       <r>  -51.6025    1.0000 </r>
       <r>  -51.6025    1.0000 </r>
       <r>  -51.6023    1.0000 </r>
       <r>  -51.6022    1.0000 </r>
       <r>  -51.6020    1.0000 </r>
       <r>  -51.4194    1.0000 </r>
       <r>  -51.4186    1.0000 </r>
       <r>  -51.4183    1.0000 </r>
       <r>  -51.4180    1.0000 </r>
       <r>  -51.4177    1.0000 </r>
       <r>  -51.4177    1.0000 </r>
       <r>  -51.4177    1.0000 </r>
       <r>  -51.4177    1.0000 </r>
       <r>  -51.4173    1.0000 </r>
       <r>  -51.4170    1.0000 </r>
       <r>  -51.4168    1.0000 </r>
       <r>  -51.4160    1.0000 </r>
       <r>  -51.2992    1.0000 </r>
       <r>  -51.2985    1.0000 </r>
       <r>  -51.2983    1.0000 </r>
       <r>  -51.2980    1.0000 </r>
       <r>  -51.2978    1.0000 </r>
       <r>  -51.2977    1.0000 </r>
       <r>  -51.2977    1.0000 </r>
       <r>  -51.2976    1.0000 </r>
       <r>  -51.2971    1.0000 </r>
       <r>  -51.2969    1.0000 </r>
       <r>  -51.2967    1.0000 </r>
       <r>  -51.2961    1.0000 </r>
       <r>  -50.1578    1.0000 </r>
       <r>  -50.1577    1.0000 </r>
       <r>  -50.1577    1.0000 </r>
       <r>  -50.1576    1.0000 </r>
       <r>  -50.1574    1.0000 </r>
       <r>  -50.1574    1.0000 </r>
       <r>  -50.1574    1.0000 </r>
       <r>  -50.1573    1.0000 </r>
       <r>  -50.1569    1.0000 </r>
       <r>  -50.1569    1.0000 </r>
       <r>  -50.1566    1.0000 </r>
       <r>  -50.1565    1.0000 </r>
       <r>  -50.0663    1.0000 </r>
       <r>  -50.0661    1.0000 </r>
       <r>  -50.0660    1.0000 </r>
       <r>  -50.0659    1.0000 </r>
       <r>  -50.0659    1.0000 </r>
       <r>  -50.0658    1.0000 </r>
       <r>  -50.0656    1.0000 </r>
       <r>  -50.0656    1.0000 </r>
       <r>  -50.0656    1.0000 </r>
       <r>  -50.0655    1.0000 </r>
       <r>  -50.0654    1.0000 </r>
       <r>  -50.0652    1.0000 </r>
       <r>  -49.9634    1.0000 </r>
       <r>  -49.9625    1.0000 </r>
       <r>  -49.9623    1.0000 </r>
       <r>  -49.9619    1.0000 </r>
       <r>  -49.9616    1.0000 </r>
       <r>  -49.9616    1.0000 </r>
       <r>  -49.9616    1.0000 </r>
       <r>  -49.9615    1.0000 </r>
       <r>  -49.9613    1.0000 </r>
       <r>  -49.9609    1.0000 </r>
       <r>  -49.9607    1.0000 </r>
       <r>  -49.9598    1.0000 </r>
       <r>  -49.9544    1.0000 </r>
       <r>  -49.9535    1.0000 </r>
       <r>  -49.9531    1.0000 </r>
       <r>  -49.9527    1.0000 </r>
       <r>  -49.9525    1.0000 </r>
       <r>  -49.9524    1.0000 </r>
       <r>  -49.9524    1.0000 </r>
       <r>  -49.9524    1.0000 </r>
       <r>  -49.9522    1.0000 </r>
       <r>  -49.9518    1.0000 </r>
       <r>  -49.9514    1.0000 </r>
       <r>  -49.9504    1.0000 </r>
       <r>  -49.8907    1.0000 </r>
       <r>  -49.8897    1.0000 </r>
       <r>  -49.8894    1.0000 </r>
       <r>  -49.8890    1.0000 </r>
       <r>  -49.8888    1.0000 </r>
       <r>  -49.8888    1.0000 </r>
       <r>  -49.8887    1.0000 </r>
       <r>  -49.8887    1.0000 </r>
       <r>  -49.8885    1.0000 </r>
       <r>  -49.8881    1.0000 </r>
       <r>  -49.8878    1.0000 </r>
       <r>  -49.8869    1.0000 </r>
       <r>  -49.8486    1.0000 </r>
[...]
       <r>   -32.5877     0.0000   156.0000 </r>
       <r>   -32.3481     0.0000   156.0000 </r>
       <r>   -32.1085     0.0000   156.0000 </r>
       <r>   -31.8689     0.0000   156.0000 </r>
       <r>   -31.6293     0.0000   156.0000 </r>
       <r>   -31.3897     0.0000   156.0000 </r>
       <r>   -31.1501     0.0000   156.0000 </r>
       <r>   -30.9105     0.0000   156.0000 </r>
       <r>   -30.6709     0.0000   156.0000 </r>
       <r>   -30.4313     0.0000   156.0000 </r>
       <r>   -30.1917     0.0000   156.0000 </r>
       <r>   -29.9521     0.0000   156.0000 </r>
       <r>   -29.7125     0.0000   156.0000 </r>
       <r>   -29.4729     0.0000   156.0000 </r>
       <r>   -29.2333     0.0000   156.0000 </r>
       <r>   -28.9937     0.0000   156.0000 </r>
       <r>   -28.7541     0.0000   156.0000 </r>
       <r>   -28.5146     0.0000   156.0000 </r>
       <r>   -28.2750     0.0000   156.0000 </r>
       <r>   -28.0354     0.0000   156.0000 </r>
       <r>   -27.7958     0.0000   156.0000 </r>
       <r>   -27.5562     0.0000   156.0000 </r>
       <r>   -27.3166     0.0000   156.0000 </r>
       <r>   -27.0770     0.0000   156.0000 </r>
       <r>   -26.8374     0.0000   156.0000 </r>
       <r>   -26.5978     0.0000   156.0000 </r>
       <r>   -26.3582     0.0000   156.0000 </r>
       <r>   -26.1186     0.0000   156.0000 </r>
       <r>   -25.8790     0.0000   156.0000 </r>
       <r>   -25.6394     0.0000   156.0000 </r>
       <r>   -25.3998     0.0000   156.0000 </r>
       <r>   -25.1602     0.0000   156.0000 </r>
       <r>   -24.9206     0.0000   156.0000 </r>
       <r>   -24.6810     0.0000   156.0000 </r>
       <r>   -24.4414     0.0000   156.0000 </r>
       <r>   -24.2018     0.0000   156.0000 </r>
       <r>   -23.9622     0.0000   156.0000 </r>
       <r>   -23.7226     0.0000   156.0000 </r>
       <r>   -23.4830     0.0000   156.0000 </r>
       <r>   -23.2434     0.0000   156.0000 </r>
       <r>   -23.0038     0.0000   156.0000 </r>
       <r>   -22.7642     0.0000   156.0000 </r>
       <r>   -22.5246     0.0000   156.0000 </r>
       <r>   -22.2850     0.0000   156.0000 </r>
       <r>   -22.0454     0.0000   156.0000 </r>
       <r>   -21.8058     0.0000   156.0000 </r>
       <r>   -21.5662     0.0000   156.0000 </r>
       <r>   -21.3266     0.0000   156.0000 </r>
       <r>   -21.0870     0.0000   156.0000 </r>
       <r>   -20.8474     0.0000   156.0000 </r>
       <r>   -20.6078     0.0000   156.0000 </r>
       <r>   -20.3682     0.0000   156.0000 </r>
       <r>   -20.1286     0.0000   156.0000 </r>
       <r>   -19.8890     0.0000   156.0000 </r>
       <r>   -19.6494     0.0000   156.0000 </r>
       <r>   -19.4098     0.0000   156.0000 </r>
       <r>   -19.1702     0.0000   156.0000 </r>
       <r>   -18.9306     0.0000   156.0000 </r>
       <r>   -18.6910     0.0000   156.0000 </r>
       <r>   -18.4514     0.0000   156.0000 </r>
       <r>   -18.2118     0.0000   156.0000 </r>
       <r>   -17.9722     0.0000   156.0000 </r>
       <r>   -17.7326     0.0000   156.0000 </r>
       <r>   -17.4930     0.0000   156.0000 </r>
       <r>   -17.2534     0.0000   156.0000 </r>
       <r>   -17.0138     0.0000   156.0000 </r>
       <r>   -16.7742     0.0000   156.0000 </r>
       <r>   -16.5346     0.0000   156.0000 </r>
       <r>   -16.2950     0.0000   156.0000 </r>
       <r>   -16.0554     0.0000   156.0000 </r>
       <r>   -15.8158     0.0000   156.0000 </r>
       <r>   -15.5762     0.0000   156.0000 </r>
       <r>   -15.3366     0.0000   156.0000 </r>
       <r>   -15.0970     0.0000   156.0000 </r>
       <r>   -14.8574     0.0000   156.0000 </r>
       <r>   -14.6178     0.0000   156.0000 </r>
       <r>   -14.3782     0.0000   156.0000 </r>
       <r>   -14.1386     0.0000   156.0000 </r>
       <r>   -13.8990     0.0000   156.0000 </r>
       <r>   -13.6594     0.0000   156.0000 </r>
       <r>   -13.4199     1.8230   156.4368 </r>
       <r>   -13.1803    44.4869   167.0958 </r>
       <r>   -12.9407     4.5070   168.1756 </r>
       <r>   -12.7011    42.1641   178.2781 </r>
       <r>   -12.4615     7.1866   180.0000 </r>
       <r>   -12.2219     0.0000   180.0000 </r>
       <r>   -11.9823     0.0000   180.0000 </r>
       <r>   -11.7427     0.0000   180.0000 </r>
       <r>   -11.5031     0.0000   180.0000 </r>
       <r>   -11.2635     0.0000   180.0000 </r>
       <r>   -11.0239     0.0000   180.0000 </r>
       <r>   -10.7843     0.0000   180.0000 </r>
       <r>   -10.5447     0.0000   180.0000 </r>
       <r>   -10.3051     0.0000   180.0000 </r>
       <r>   -10.0655     0.0000   180.0000 </r>
       <r>    -9.8259     0.0000   180.0000 </r>
       <r>    -9.5863     0.0000   180.0000 </r>
       <r>    -9.3467     0.0000   180.0000 </r>
       <r>    -9.1071     0.0000   180.0000 </r>
       <r>    -8.8675     0.0000   180.0000 </r>
       <r>    -8.6279     0.0000   180.0000 </r>
       <r>    -8.3883     0.0000   180.0000 </r>
       <r>    -8.1487     0.0000   180.0000 </r>
       <r>    -7.9091     0.0000   180.0000 </r>
       <r>    -7.6695     0.0175   180.0042 </r>
       <r>    -7.4299    12.0156   182.8831 </r>
       <r>    -7.1903    28.6292   189.7426 </r>
       <r>    -6.9507    59.9496   204.1065 </r>
       <r>    -6.7111    46.3445   215.2105 </r>
       <r>    -6.4715     3.2949   216.0000 </r>
       <r>    -6.2319     0.0000   216.0000 </r>
       <r>    -5.9923     0.0000   216.0000 </r>
       <r>    -5.7527     0.0000   216.0000 </r>
       <r>    -5.5131     0.0000   216.0000 </r>
       <r>    -5.2735     0.0000   216.0000 </r>
       <r>    -5.0339     0.0000   216.0000 </r>
       <r>    -4.7943     0.0000   216.0000 </r>
       <r>    -4.5547     0.0000   216.0000 </r>
       <r>    -4.3151     0.0000   216.0000 </r>
       <r>    -4.0755     0.0000   216.0000 </r>
       <r>    -3.8359     0.0000   216.0000 </r>
       <r>    -3.5963     0.0000   216.0000 </r>
       <r>    -3.3567     0.0000   216.0000 </r>
       <r>    -3.1171     0.0000   216.0000 </r>
       <r>    -2.8775     0.0000   216.0000 </r>
       <r>    -2.6379     0.0000   216.0000 </r>
       <r>    -2.3983     0.0000   216.0000 </r>
       <r>    -2.1587     0.0000   216.0000 </r>
       <r>    -1.9191     0.0000   216.0000 </r>
       <r>    -1.6795     0.0000   216.0000 </r>
       <r>    -1.4399     0.0000   216.0000 </r>
       <r>    -1.2003     0.0886   216.0212 </r>
       <r>    -0.9607     4.4164   217.0794 </r>
       <r>    -0.7211    14.1014   220.4581 </r>
       <r>    -0.4815    15.3246   224.1298 </r>
       <r>    -0.2419    19.6038   228.8269 </r>
       <r>    -0.0023    41.2517   238.7107 </r>
       <r>     0.2373    33.9480   246.8446 </r>
       <r>     0.4769    42.1485   256.9433 </r>
       <r>     0.7165    33.7037   265.0187 </r>
       <r>     0.9561    53.0230   277.7229 </r>
       <r>     1.1957    60.3902   292.1923 </r>
       <r>     1.4353    44.4246   302.8364 </r>
       <r>     1.6748    40.0382   312.4295 </r>
       <r>     1.9144    38.4628   321.6451 </r>
       <r>     2.1540    37.3799   330.6013 </r>
       <r>     2.3936    38.2929   339.7762 </r>
       <r>     2.6332    49.4524   351.6249 </r>
       <r>     2.8728    62.8667   366.6877 </r>
       <r>     3.1124    58.7534   380.7649 </r>
       <r>     3.3520    47.9486   392.2533 </r>
       <r>     3.5916    29.9936   399.4397 </r>
       <r>     3.8312    61.3723   414.1444 </r>
       <r>     4.0708    73.1639   431.6744 </r>
       <r>     4.3104     1.3589   432.0000 </r>
       <r>     4.5500     0.0000   432.0000 </r>
       <r>     4.7896     0.0000   432.0000 </r>
       <r>     5.0292     0.0000   432.0000 </r>
       <r>     5.2688     0.0000   432.0000 </r>
       <r>     5.5084     0.0000   432.0000 </r>
       <r>     5.7480     0.0000   432.0000 </r>
       <r>     5.9876     0.0000   432.0000 </r>
       <r>     6.2272     0.1457   432.0349 </r>
       <r>     6.4668     8.1626   433.9907 </r>
       <r>     6.7064    30.2819   441.2461 </r>
       <r>     6.9460    43.4570   451.6584 </r>
       <r>     7.1856    73.2492   469.2088 </r>
       <r>     7.4252    80.8014   488.5687 </r>
       <r>     7.6648    65.3835   504.2344 </r>
       <r>     7.9044    87.8985   525.2948 </r>
       <r>     8.1440    71.2661   542.3700 </r>
       <r>     8.3836    54.3998   555.4041 </r>
       <r>     8.6232    37.2075   564.3190 </r>
       <r>     8.8628    39.1377   573.6963 </r>
       <r>     9.1024    19.3498   578.3325 </r>
       <r>     9.3420    13.9155   581.6666 </r>
       <r>     9.5816    20.5842   586.5986 </r>
       <r>     9.8212    30.0056   593.7879 </r>
       <r>    10.0608    26.5534   600.1500 </r>
       <r>    10.3004    34.7564   608.4776 </r>
       <r>    10.5400    35.4190   616.9640 </r>
       <r>    10.7796    27.9525   623.6613 </r>
       <r>    11.0192    22.4244   629.0342 </r>
       <r>    11.2588    21.6059   634.2109 </r>
       <r>    11.4984    32.3041   641.9509 </r>
       <r>    11.7380    38.7379   651.2325 </r>
       <r>    11.9776    42.6061   661.4408 </r>
       <r>    12.2172    51.9764   673.8943 </r>
       <r>    12.4568    46.7852   685.1039 </r>
       <r>    12.6964    35.9682   693.7218 </r>
       <r>    12.9360    41.2730   703.6108 </r>
       <r>    13.1756    39.7270   713.1293 </r>
       <r>    13.4152    34.2339   721.3317 </r>
       <r>    13.6548    23.9984   727.0817 </r>
       <r>    13.8944     3.8328   728.0000 </r>
       <r>    14.1340     0.0000   728.0000 </r>
       <r>    14.3736     0.0000   728.0000 </r>
       <r>    14.6132     0.0000   728.0000 </r>
       <r>    14.8528     0.0000   728.0000 </r>
       <r>    15.0924     0.0000   728.0000 </r>
       <r>    15.3320     0.0000   728.0000 </r>
       <r>    15.5716     0.0000   728.0000 </r>
       <r>    15.8112     0.0000   728.0000 </r>
       <r>    16.0508     0.0000   728.0000 </r>
       <r>    16.2904     0.0000   728.0000 </r>
       <r>    16.5300     0.0000   728.0000 </r>
       <r>    16.7695     0.0000   728.0000 </r>
       <r>    17.0091     0.0000   728.0000 </r>
      </set>
     </set>
    </array>
   </total>
  </dos>
 </calculation>
 <structure name="finalpos" >
  <crystal>
   <varray name="basis" >
    <v>      15.21162830       0.00516956      -2.78361592 </v>
    <v>      -0.40798665      11.93565774      -2.20735884 </v>
    <v>      -0.06175567      -0.11168197      10.54442638 </v>
   </varray>
   <i name="volume">   1908.54869108 </i>
   <varray name="rec_basis" >
    <v>       0.06581343       0.00232549       0.00041008 </v>
    <v>       0.00013433       0.08395174       0.00088997 </v>
    <v>       0.01740216       0.01818827       0.09513139 </v>
   </varray>
  </crystal>
  <varray name="positions" >
   <v>       0.47527516       0.00156706       0.00446200 </v>
   <v>       0.97527516       0.00074367       0.00446200 </v>
   <v>       0.47527516       0.33407700       0.00446200 </v>
   <v>       0.97527516       0.33407700       0.00446200 </v>
   <v>       0.47527516       0.66741034       0.00446200 </v>
   <v>       0.97527516       0.66741034       0.00446200 </v>
   <v>       0.27472484       0.33258966       0.99553800 </v>
   <v>       0.77472484       0.33258966       0.99553800 </v>
   <v>       0.27472484       0.66592300       0.99553800 </v>
   <v>       0.77472484       0.66592300       0.99553800 </v>
   <v>       0.27472484       0.99925633       0.99553800 </v>
   <v>       0.77472484       0.99925633       0.99553800 </v>
   <v>       0.17788805       0.26797179       0.60783074 </v>
   <v>       0.67788805       0.26797179       0.60783074 </v>
   <v>       0.17788805       0.60130513       0.60783074 </v>
   <v>       0.67788805       0.60130513       0.60783074 </v>
   <v>       0.17788805       0.93463846       0.60783074 </v>
   <v>       0.67788805       0.93463846       0.60783074 </v>
   <v>       0.07211195       0.06536154       0.39216926 </v>
   <v>       0.57211195       0.06536154       0.39216926 </v>
   <v>       0.07211195       0.39869487       0.39216926 </v>
   <v>       0.57211195       0.39869487       0.39216926 </v>
   <v>       0.07211195       0.73202821       0.39216926 </v>
   <v>       0.57211195       0.73202821       0.39216926 </v>
   <v>       0.10733875       0.30765571       0.84593428 </v>
   <v>       0.60733875       0.30765571       0.84593428 </v>
   <v>       0.10733875       0.64098905       0.84593428 </v>
   <v>       0.60733875       0.64098905       0.84593428 </v>
   <v>       0.10733875       0.97432238       0.84593428 </v>
   <v>       0.60733875       0.97432238       0.84593428 </v>
   <v>       0.34464416       0.29539312       0.77235872 </v>
   <v>       0.84464416       0.29539312       0.77235872 </v>
   <v>       0.34464416       0.62872645       0.77235872 </v>
   <v>       0.84464416       0.62872645       0.77235872 </v>
   <v>       0.34464416       0.96205979       0.77235872 </v>
   <v>       0.84464416       0.96205979       0.77235872 </v>
   <v>       0.14266125       0.02567762       0.15406572 </v>
   <v>       0.64266125       0.02567762       0.15406572 </v>
   <v>       0.14266125       0.35901095       0.15406572 </v>
   <v>       0.64266125       0.35901095       0.15406572 </v>
   <v>       0.14266125       0.69234429       0.15406572 </v>
   <v>       0.64266125       0.69234429       0.15406572 </v>
   <v>       0.40535584       0.03794021       0.22764128 </v>
   <v>       0.90535584       0.03794021       0.22764128 </v>
   <v>       0.40535584       0.37127355       0.22764128 </v>
   <v>       0.90535584       0.37127355       0.22764128 </v>
   <v>       0.40535584       0.70460688       0.22764128 </v>
   <v>       0.90535584       0.70460688       0.22764128 </v>
   <v>       0.46517249       0.26691416       0.60148498 </v>
   <v>       0.96517249       0.26691416       0.60148498 </v>
   <v>       0.46517249       0.60024750       0.60148498 </v>
   <v>       0.96517249       0.60024750       0.60148498 </v>
   <v>       0.46517249       0.93358083       0.60148498 </v>
   <v>       0.96517249       0.93358083       0.60148498 </v>
   <v>       0.28482751       0.06641917       0.39851502 </v>
   <v>       0.78482751       0.06641917       0.39851502 </v>
   <v>       0.28482751       0.39975250       0.39851502 </v>
   <v>       0.78482751       0.39975250       0.39851502 </v>
   <v>       0.28482751       0.73308584       0.39851502 </v>
   <v>       0.78482751       0.73308584       0.39851502 </v>
   <v>       0.22447416       0.13353711       0.80122268 </v>
   <v>       0.72447416       0.13353711       0.80122268 </v>
   <v>       0.22447416       0.46687045       0.80122268 </v>
   <v>       0.72447416       0.46687045       0.80122268 </v>
   <v>       0.22447416       0.80020378       0.80122268 </v>
   <v>       0.72447416       0.80020378       0.80122268 </v>
   <v>       0.47796479       0.13582521       0.81495126 </v>
   <v>       0.97796479       0.13582521       0.81495126 </v>
   <v>       0.47796479       0.46915854       0.81495126 </v>
   <v>       0.97796479       0.46915854       0.81495126 </v>
   <v>       0.47796479       0.80249188       0.81495126 </v>
   <v>       0.97796479       0.80249188       0.81495126 </v>
   <v>       0.02552584       0.19979622       0.19877732 </v>
   <v>       0.52552584       0.19979622       0.19877732 </v>
   <v>       0.02552584       0.53312955       0.19877732 </v>
   <v>       0.52552584       0.53312955       0.19877732 </v>
   <v>       0.02552584       0.86646289       0.19877732 </v>
   <v>       0.52552584       0.86646289       0.19877732 </v>
   <v>       0.27203521       0.19750812       0.18504874 </v>
   <v>       0.77203521       0.19750812       0.18504874 </v>
   <v>       0.27203521       0.53084146       0.18504874 </v>
   <v>       0.77203521       0.53084146       0.18504874 </v>
   <v>       0.27203521       0.86417479       0.18504874 </v>
   <v>       0.77203521       0.86417479       0.18504874 </v>
   <v>       0.12500000       0.16666667       0.00000000 </v>
   <v>       0.62500000       0.16666667       0.00000000 </v>
   <v>       0.12500000       0.50000000       0.00000000 </v>
   <v>       0.62500000       0.50000000       0.00000000 </v>
   <v>       0.12500000       0.83333333       0.00000000 </v>
   <v>       0.62500000       0.83333333       0.00000000 </v>
   <v>       0.37500000       0.16666667       0.00000000 </v>
   <v>       0.87500000       0.16666667       0.00000000 </v>
   <v>       0.37500000       0.50000000       0.00000000 </v>
   <v>       0.87500000       0.50000000       0.00000000 </v>
   <v>       0.37500000       0.83333333       0.00000000 </v>
   <v>       0.87500000       0.83333333       0.00000000 </v>
   <v>       0.17614737       0.22809805       0.36858830 </v>
   <v>       0.67614737       0.22809805       0.36858830 </v>
   <v>       0.17614737       0.56143138       0.36858830 </v>
   <v>       0.67614737       0.56143138       0.36858830 </v>
   <v>       0.17614737       0.89476472       0.36858830 </v>
   <v>       0.67614737       0.89476472       0.36858830 </v>
   <v>       0.41542106       0.22793643       0.36761855 </v>
   <v>       0.91542106       0.22793643       0.36761855 </v>
   <v>       0.41542106       0.56126976       0.36761855 </v>
   <v>       0.91542106       0.56126976       0.36761855 </v>
   <v>       0.41542106       0.89460309       0.36761855 </v>
   <v>       0.91542106       0.89460309       0.36761855 </v>
   <v>       0.07385263       0.10523528       0.63141170 </v>
   <v>       0.57385263       0.10523528       0.63141170 </v>
   <v>       0.07385263       0.43856862       0.63141170 </v>
   <v>       0.57385263       0.43856862       0.63141170 </v>
   <v>       0.07385263       0.77190195       0.63141170 </v>
   <v>       0.57385263       0.77190195       0.63141170 </v>
   <v>       0.33457894       0.10539691       0.63238145 </v>
   <v>       0.83457894       0.10539691       0.63238145 </v>
   <v>       0.33457894       0.43873024       0.63238145 </v>
   <v>       0.83457894       0.43873024       0.63238145 </v>
   <v>       0.33457894       0.77206357       0.63238145 </v>
   <v>       0.83457894       0.77206357       0.63238145 </v>
   <v>       0.22527003       0.30093342       0.80560053 </v>
   <v>       0.72527003       0.30093342       0.80560053 </v>
   <v>       0.22527003       0.63426676       0.80560053 </v>
   <v>       0.72527003       0.63426676       0.80560053 </v>
   <v>       0.22527003       0.96760009       0.80560053 </v>
   <v>       0.72527003       0.96760009       0.80560053 </v>
   <v>       0.47618324       0.30143353       0.80860116 </v>
   <v>       0.97618324       0.30143353       0.80860116 </v>
   <v>       0.47618324       0.63476686       0.80860116 </v>
   <v>       0.97618324       0.63476686       0.80860116 </v>
   <v>       0.47618324       0.96810019       0.80860116 </v>
   <v>       0.97618324       0.96810019       0.80860116 </v>
   <v>       0.02472997       0.03239991       0.19439947 </v>
   <v>       0.52472997       0.03239991       0.19439947 </v>
   <v>       0.02472997       0.36573324       0.19439947 </v>
   <v>       0.52472997       0.36573324       0.19439947 </v>
   <v>       0.02472997       0.69906658       0.19439947 </v>
   <v>       0.52472997       0.69906658       0.19439947 </v>
   <v>       0.27381676       0.03189981       0.19139884 </v>
   <v>       0.77381676       0.03189981       0.19139884 </v>
   <v>       0.27381676       0.36523314       0.19139884 </v>
   <v>       0.77381676       0.36523314       0.19139884 </v>
   <v>       0.27381676       0.69856647       0.19139884 </v>
   <v>       0.77381676       0.69856647       0.19139884 </v>
  </varray>
 </structure>
</modeling>
