<?xml version="1.0" encoding="ISO-8859-1"?>
<modeling>
 <generator>
  <i name="program" type="string">vasp </i>
  <i name="version" type="string">5.4.4.18Apr17-6-g9f103f2a35  </i>
  <i name="subversion" type="string">(build Oct 25 2017 14:42:18) complex            parallel </i>
  <i name="platform" type="string">LinuxIFC </i>
  <i name="date" type="string">2021 06 02 </i>
  <i name="time" type="string">17:40:48 </i>
 </generator>
 <incar>
  <i type="string" name="PREC">accurate</i>
  <i type="string" name="ALGO"> normal</i>
  <i type="logical" name="ADDGRID"> T  </i>
  <i type="int" name="ISPIN">     2</i>
  <i type="int" name="ICHARG">     1</i>
  <i type="int" name="NELM">   200</i>
  <i type="int" name="NELMIN">     8</i>
  <i name="EDIFF">      0.00000100</i>
  <i type="int" name="ISYM">     0</i>
  <i name="ENCUT">    650.00000000</i>
  <v name="MAGMOM">      0.60000000      0.60000000      0.60000000      0.60000000      0.60000000      0.60000000      0.60000000      0.60000000      0.60000000      0.60000000      0.60000000      0.60000000      0.60000000      0.60000000      0.60000000      0.60000000      0.60000000      0.60000000      0.60000000      0.60000000
      0.60000000      0.60000000      0.60000000      0.60000000      0.60000000      0.60000000      0.60000000      0.60000000      0.60000000      0.60000000      0.60000000      0.60000000      0.60000000      0.60000000      0.60000000      0.60000000      0.60000000      0.60000000      0.60000000      0.60000000
      0.60000000      0.60000000      0.60000000      0.60000000      0.60000000      0.60000000      0.60000000      0.60000000      0.60000000      0.60000000      0.60000000      0.60000000      0.60000000      0.60000000      0.60000000      0.60000000      5.00000000      5.00000000      5.00000000      5.00000000
      5.00000000      5.00000000      5.00000000      5.00000000      5.00000000      5.00000000      5.00000000      5.00000000      5.00000000      5.00000000      5.00000000      5.00000000      5.00000000      5.00000000      5.00000000      5.00000000      5.00000000      5.00000000      5.00000000      5.00000000
      5.00000000      5.00000000      5.00000000      5.00000000      5.00000000      5.00000000      5.00000000      5.00000000</v>
  <i type="logical" name="LREAL"> F  </i>
  <i type="int" name="ISMEAR">     0</i>
  <i name="SIGMA">      0.05000000</i>
  <i type="int" name="NWRITE">     1</i>
  <i type="int" name="LMAXMIX">     4</i>
  <i type="logical" name="LWAVE"> F  </i>
  <i type="logical" name="LASPH"> T  </i>
  <v type="int" name="KPOINT_BSE">    -1     0     0     0</v>
  <i type="int" name="NELM">   200</i>
  <i type="string" name="GGA"> pe</i>
  <i type="logical" name="LDAU"> T  </i>
  <v type="int" name="LDAUTYPE">     2</v>
  <v type="int" name="LDAUL">    -1    -1    -1     2</v>
  <v name="LDAUU">      0.00000000      0.00000000      0.00000000      4.00000000</v>
  <v name="LDAUJ">      0.00000000      0.00000000      0.00000000      0.00000000</v>
  <i type="logical" name="LASPH"> T  </i>
 </incar>
 <structure name="primitive_cell" >
  <crystal>
   <varray name="basis" >
    <v>      11.11223374       0.00000000      -0.00029034 </v>
    <v>       0.00000000      11.11745194       0.00000000 </v>
    <v>      -2.77510898       0.00000000      10.19872221 </v>
   </varray>
   <i name="volume">   1259.93837498 </i>
   <varray name="rec_basis" >
    <v>       0.08999155       0.00000000       0.02448702 </v>
    <v>       0.00000000       0.08994867       0.00000000 </v>
    <v>       0.00000256       0.00000000       0.09805220 </v>
   </varray>
  </crystal>
  <varray name="positions" >
   <v>       0.28894970       0.46933910       0.15583616 </v>
   <v>       0.17529533      -0.40661825       0.19749617 </v>
   <v>       0.42345029       0.34530995       0.19749407 </v>
   <v>       0.12439279       0.34524255       0.00000412 </v>
   <v>       0.37560721      -0.40565694      -0.00000412 </v>
   <v>      -0.46151602       0.46936404       0.15397331 </v>
   <v>       0.03848398       0.46936404       0.15397331 </v>
   <v>       0.28861657       0.21935690       0.15447525 </v>
   <v>       0.28861657      -0.28064310       0.15447525 </v>
   <v>       0.21868463       0.34523395       0.37102476 </v>
   <v>       0.46681660      -0.40655103       0.37102399 </v>
   <v>       0.23507288      -0.41767349       0.39367237 </v>
   <v>       0.46175575       0.35634799       0.39367694 </v>
   <v>       0.21138343       0.46935690      -0.15447525 </v>
   <v>       0.04646972       0.21934976       0.18586770 </v>
   <v>       0.04646972      -0.28065024       0.18586770 </v>
   <v>      -0.45353028       0.21934976       0.18586770 </v>
   <v>      -0.45353028      -0.28065024       0.18586770 </v>
   <v>       0.32470467       0.34338175      -0.19749617 </v>
   <v>       0.07654971      -0.40469005      -0.19749407 </v>
   <v>       0.21105030       0.21933910      -0.15583616 </v>
   <v>       0.21105030      -0.28066090      -0.15583616 </v>
   <v>      -0.07654971       0.34530995       0.19749407 </v>
   <v>      -0.32470467      -0.40661825       0.19749617 </v>
   <v>       0.17529533       0.09338175       0.19749617 </v>
   <v>       0.42345029      -0.15469005       0.19749407 </v>
   <v>       0.45353028       0.46934976      -0.18586770 </v>
   <v>      -0.04646972       0.46934976      -0.18586770 </v>
   <v>      -0.37560721       0.34434306       0.00000412 </v>
   <v>      -0.12439279      -0.40565694      -0.00000412 </v>
   <v>       0.37560721       0.09434306      -0.00000412 </v>
   <v>       0.12439279      -0.15565694       0.00000412 </v>
   <v>      -0.03318340      -0.40655103       0.37102399 </v>
   <v>      -0.28131537       0.34523395       0.37102476 </v>
   <v>       0.21868463      -0.15476605       0.37102476 </v>
   <v>       0.46681660       0.09344897       0.37102399 </v>
   <v>       0.46151602       0.21936404      -0.15397331 </v>
   <v>       0.46151602      -0.28063596      -0.15397331 </v>
   <v>      -0.03848398       0.21936404      -0.15397331 </v>
   <v>      -0.03848398      -0.28063596      -0.15397331 </v>
   <v>       0.26492712       0.33232651      -0.39367237 </v>
   <v>      -0.46175575      -0.39365201      -0.39367694 </v>
   <v>      -0.03824425       0.35634799       0.39367694 </v>
   <v>      -0.26492712      -0.41767349       0.39367237 </v>
   <v>       0.23507288       0.08232651       0.39367237 </v>
   <v>       0.46175575      -0.14365201       0.39367694 </v>
   <v>       0.28131537      -0.40476605      -0.37102476 </v>
   <v>      -0.46681660       0.34344897      -0.37102399 </v>
   <v>      -0.21105030       0.46933910       0.15583616 </v>
   <v>       0.28894970      -0.03066090       0.15583616 </v>
   <v>       0.32470467      -0.15661825      -0.19749617 </v>
   <v>       0.07654971       0.09530995      -0.19749407 </v>
   <v>      -0.42345029      -0.40469005      -0.19749407 </v>
   <v>      -0.17529533       0.34338175      -0.19749617 </v>
   <v>       0.03318340       0.34344897      -0.37102399 </v>
   <v>      -0.07654971      -0.15469005       0.19749407 </v>
   <v>      -0.32470467       0.09338175       0.19749617 </v>
   <v>       0.03824425      -0.39365201      -0.39367694 </v>
   <v>      -0.37560721      -0.15565694       0.00000412 </v>
   <v>      -0.12439279       0.09434306      -0.00000412 </v>
   <v>      -0.21138343       0.21935690       0.15447525 </v>
   <v>      -0.21138343      -0.28064310       0.15447525 </v>
   <v>      -0.46151602      -0.03063596       0.15397331 </v>
   <v>       0.03848398      -0.03063596       0.15397331 </v>
   <v>       0.26492712      -0.16767349      -0.39367237 </v>
   <v>      -0.46175575       0.10634799      -0.39367694 </v>
   <v>      -0.03318340       0.09344897       0.37102399 </v>
   <v>      -0.28131537      -0.15476605       0.37102476 </v>
   <v>      -0.23507288       0.33232651      -0.39367237 </v>
   <v>      -0.28861657       0.46935690      -0.15447525 </v>
   <v>       0.21138343      -0.03064310      -0.15447525 </v>
   <v>      -0.21868463      -0.40476605      -0.37102476 </v>
   <v>       0.28131537       0.09523395      -0.37102476 </v>
   <v>      -0.46681660      -0.15655103      -0.37102399 </v>
   <v>      -0.03824425      -0.14365201       0.39367694 </v>
   <v>      -0.26492712       0.08232651       0.39367237 </v>
   <v>      -0.42345029       0.09530995      -0.19749407 </v>
   <v>      -0.17529533      -0.15661825      -0.19749617 </v>
   <v>       0.03318340      -0.15655103      -0.37102399 </v>
   <v>      -0.28894970       0.21933910      -0.15583616 </v>
   <v>      -0.28894970      -0.28066090      -0.15583616 </v>
   <v>       0.03824425       0.10634799      -0.39367694 </v>
   <v>       0.45353028      -0.03065024      -0.18586770 </v>
   <v>      -0.04646972      -0.03065024      -0.18586770 </v>
   <v>      -0.23507288      -0.16767349      -0.39367237 </v>
   <v>      -0.21868463       0.09523395      -0.37102476 </v>
   <v>      -0.21105030      -0.03066090       0.15583616 </v>
   <v>      -0.28861657      -0.03064310      -0.15447525 </v>
  </varray>
 </structure>
 <varray name="primitive_index" >
  <v type="int" >        1 </v>
  <v type="int" >       27 </v>
  <v type="int" >       29 </v>
  <v type="int" >       49 </v>
  <v type="int" >       55 </v>
  <v type="int" >       74 </v>
  <v type="int" >       73 </v>
  <v type="int" >       77 </v>
  <v type="int" >       79 </v>
  <v type="int" >       33 </v>
  <v type="int" >       39 </v>
  <v type="int" >       67 </v>
  <v type="int" >       69 </v>
  <v type="int" >       81 </v>
  <v type="int" >        5 </v>
  <v type="int" >        7 </v>
  <v type="int" >        6 </v>
  <v type="int" >        8 </v>
  <v type="int" >       21 </v>
  <v type="int" >       19 </v>
  <v type="int" >       13 </v>
  <v type="int" >       15 </v>
  <v type="int" >       30 </v>
  <v type="int" >       28 </v>
  <v type="int" >       25 </v>
  <v type="int" >       31 </v>
  <v type="int" >        9 </v>
  <v type="int" >       10 </v>
  <v type="int" >       50 </v>
  <v type="int" >       56 </v>
  <v type="int" >       53 </v>
  <v type="int" >       51 </v>
  <v type="int" >       40 </v>
  <v type="int" >       34 </v>
  <v type="int" >       35 </v>
  <v type="int" >       37 </v>
  <v type="int" >       85 </v>
  <v type="int" >       87 </v>
  <v type="int" >       86 </v>
  <v type="int" >       88 </v>
  <v type="int" >       61 </v>
  <v type="int" >       60 </v>
  <v type="int" >       70 </v>
  <v type="int" >       68 </v>
  <v type="int" >       65 </v>
  <v type="int" >       71 </v>
  <v type="int" >       47 </v>
  <v type="int" >       42 </v>
  <v type="int" >        2 </v>
  <v type="int" >        3 </v>
  <v type="int" >       23 </v>
  <v type="int" >       17 </v>
  <v type="int" >       20 </v>
  <v type="int" >       22 </v>
  <v type="int" >       41 </v>
  <v type="int" >       32 </v>
  <v type="int" >       26 </v>
  <v type="int" >       59 </v>
  <v type="int" >       52 </v>
  <v type="int" >       54 </v>
  <v type="int" >       78 </v>
  <v type="int" >       80 </v>
  <v type="int" >       76 </v>
  <v type="int" >       75 </v>
  <v type="int" >       63 </v>
  <v type="int" >       58 </v>
  <v type="int" >       38 </v>
  <v type="int" >       36 </v>
  <v type="int" >       62 </v>
  <v type="int" >       82 </v>
  <v type="int" >       83 </v>
  <v type="int" >       48 </v>
  <v type="int" >       45 </v>
  <v type="int" >       44 </v>
  <v type="int" >       72 </v>
  <v type="int" >       66 </v>
  <v type="int" >       18 </v>
  <v type="int" >       24 </v>
  <v type="int" >       43 </v>
  <v type="int" >       14 </v>
  <v type="int" >       16 </v>
  <v type="int" >       57 </v>
  <v type="int" >       11 </v>
  <v type="int" >       12 </v>
  <v type="int" >       64 </v>
  <v type="int" >       46 </v>
  <v type="int" >        4 </v>
  <v type="int" >       84 </v>
 </varray>
 <kpoints>
  <generation param="Gamma">
   <v type="int" name="divisions">       3        3        3 </v>
   <v name="usershift">      0.00000000       0.00000000       0.00000000 </v>
   <v name="genvec1">      0.33333333       0.00000000       0.00000000 </v>
   <v name="genvec2">      0.00000000       0.33333333       0.00000000 </v>
   <v name="genvec3">      0.00000000       0.00000000       0.33333333 </v>
   <v name="shift">      0.00000000       0.00000000       0.00000000 </v>
  </generation>
  <varray name="kpointlist" >
   <v>       0.00000000       0.00000000       0.00000000 </v>
   <v>       0.33333333       0.00000000       0.00000000 </v>
   <v>       0.00000000       0.33333333       0.00000000 </v>
   <v>       0.33333333       0.33333333       0.00000000 </v>
   <v>      -0.33333333       0.33333333      -0.00000000 </v>
   <v>       0.00000000       0.00000000       0.33333333 </v>
   <v>       0.33333333       0.00000000       0.33333333 </v>
   <v>      -0.33333333       0.00000000       0.33333333 </v>
   <v>       0.00000000       0.33333333       0.33333333 </v>
   <v>       0.33333333       0.33333333       0.33333333 </v>
   <v>      -0.33333333       0.33333333       0.33333333 </v>
   <v>       0.00000000      -0.33333333       0.33333333 </v>
   <v>       0.33333333      -0.33333333       0.33333333 </v>
   <v>      -0.33333333      -0.33333333       0.33333333 </v>
  </varray>
  <varray name="weights" >
   <v>       0.03703704 </v>
   <v>       0.07407407 </v>
   <v>       0.07407407 </v>
   <v>       0.07407407 </v>
   <v>       0.07407407 </v>
   <v>       0.07407407 </v>
   <v>       0.07407407 </v>
   <v>       0.07407407 </v>
   <v>       0.07407407 </v>
   <v>       0.07407407 </v>
   <v>       0.07407407 </v>
   <v>       0.07407407 </v>
   <v>       0.07407407 </v>
   <v>       0.07407407 </v>
  </varray>
 </kpoints>
 <parameters>
  <separator name="general" >
   <i type="string" name="SYSTEM">unknown system</i>
   <i type="logical" name="LCOMPAT"> F  </i>
  </separator>
  <separator name="electronic" >
   <i type="string" name="PREC">accura</i>
   <i name="ENMAX">    650.00000000</i>
   <i name="ENAUG">    628.94500000</i>
   <i name="EDIFF">      0.00000100</i>
   <i type="int" name="IALGO">    38</i>
   <i type="int" name="IWAVPR">    10</i>
   <i type="int" name="NBANDS">   538</i>
   <i name="NELECT">    736.00000000</i>
   <i type="int" name="TURBO">     0</i>
   <i type="int" name="IRESTART">     0</i>
   <i type="int" name="NREBOOT">     0</i>
   <i type="int" name="NMIN">     0</i>
   <i name="EREF">      0.00000000</i>
   <separator name="electronic smearing" >
    <i type="int" name="ISMEAR">     0</i>
    <i name="SIGMA">      0.05000000</i>
    <i name="KSPACING">      0.50000000</i>
    <i type="logical" name="KGAMMA"> T  </i>
   </separator>
   <separator name="electronic projectors" >
    <i type="logical" name="LREAL"> F  </i>
    <v name="ROPT">      0.00000000      0.00000000      0.00000000      0.00000000</v>
    <i type="int" name="LMAXPAW">  -100</i>
    <i type="int" name="LMAXMIX">     4</i>
    <i type="logical" name="NLSPLINE"> F  </i>
   </separator>
   <separator name="electronic startup" >
    <i type="int" name="ISTART">     0</i>
    <i type="int" name="ICHARG">     1</i>
    <i type="int" name="INIWAV">     1</i>
   </separator>
   <separator name="electronic spin" >
    <i type="int" name="ISPIN">     2</i>
    <i type="logical" name="LNONCOLLINEAR"> F  </i>
    <v name="MAGMOM">      0.60000000      0.60000000      0.60000000      0.60000000      0.60000000      0.60000000      0.60000000      0.60000000      0.60000000      0.60000000      0.60000000      0.60000000      0.60000000      0.60000000      0.60000000      0.60000000      0.60000000      0.60000000      0.60000000      0.60000000
      0.60000000      0.60000000      0.60000000      0.60000000      0.60000000      0.60000000      0.60000000      0.60000000      0.60000000      0.60000000      0.60000000      0.60000000      0.60000000      0.60000000      0.60000000      0.60000000      0.60000000      0.60000000      0.60000000      0.60000000
      0.60000000      0.60000000      0.60000000      0.60000000      0.60000000      0.60000000      0.60000000      0.60000000      0.60000000      0.60000000      0.60000000      0.60000000      0.60000000      0.60000000      0.60000000      0.60000000      5.00000000      5.00000000      5.00000000      5.00000000
      5.00000000      5.00000000      5.00000000      5.00000000      5.00000000      5.00000000      5.00000000      5.00000000      5.00000000      5.00000000      5.00000000      5.00000000      5.00000000      5.00000000      5.00000000      5.00000000      5.00000000      5.00000000      5.00000000      5.00000000
      5.00000000      5.00000000      5.00000000      5.00000000      5.00000000      5.00000000      5.00000000      5.00000000</v>
    <i name="NUPDOWN">     -1.00000000</i>
    <i type="logical" name="LSORBIT"> F  </i>
    <v name="SAXIS">      0.00000000      0.00000000      1.00000000</v>
    <i type="logical" name="LSPIRAL"> F  </i>
    <v name="QSPIRAL">      0.00000000      0.00000000      0.00000000</v>
    <i type="logical" name="LZEROZ"> F  </i>
   </separator>
   <separator name="electronic exchange-correlation" >
    <i type="logical" name="LASPH"> T  </i>
    <i type="logical" name="LMETAGGA"> F  </i>
   </separator>
   <separator name="electronic convergence" >
    <i type="int" name="NELM">   200</i>
    <i type="int" name="NELMDL">     0</i>
    <i type="int" name="NELMIN">     8</i>
    <i name="ENINI">    650.00000000</i>
    <separator name="electronic convergence detail" >
     <i type="logical" name="LDIAG"> T  </i>
     <i type="logical" name="LSUBROT"> F  </i>
     <i name="WEIMIN">      0.00000000</i>
     <i name="EBREAK">      0.00000000</i>
     <i name="DEPER">      0.30000000</i>
     <i type="int" name="NRMM">     4</i>
     <i name="TIME">      0.40000000</i>
    </separator>
   </separator>
   <separator name="electronic mixer" >
    <i name="AMIX">      0.40000000</i>
    <i name="BMIX">      1.00000000</i>
    <i name="AMIN">      0.10000000</i>
    <i name="AMIX_MAG">      1.60000000</i>
    <i name="BMIX_MAG">      1.00000000</i>
    <separator name="electronic mixer details" >
     <i type="int" name="IMIX">     4</i>
     <i type="logical" name="MIXFIRST"> F  </i>
     <i type="int" name="MAXMIX">   -45</i>
     <i name="WC">    100.00000000</i>
     <i type="int" name="INIMIX">     1</i>
     <i type="int" name="MIXPRE">     1</i>
     <i type="int" name="MREMOVE">     5</i>
    </separator>
   </separator>
   <separator name="electronic dipolcorrection" >
    <i type="logical" name="LDIPOL"> F  </i>
    <i type="logical" name="LMONO"> F  </i>
    <i type="int" name="IDIPOL">     0</i>
    <i name="EPSILON">      1.00000000</i>
    <v name="DIPOL">   -100.00000000   -100.00000000   -100.00000000</v>
    <i name="EFIELD">      0.00000000</i>
   </separator>
  </separator>
  <separator name="grids" >
   <i type="int" name="NGX">    96</i>
   <i type="int" name="NGY">    96</i>
   <i type="int" name="NGZ">    90</i>
   <i type="int" name="NGXF">   192</i>
   <i type="int" name="NGYF">   192</i>
   <i type="int" name="NGZF">   180</i>
   <i type="logical" name="ADDGRID"> T  </i>
  </separator>
  <separator name="ionic" >
   <i type="int" name="NSW">     0</i>
   <i type="int" name="IBRION">    -1</i>
   <i type="int" name="MDALGO">     0</i>
   <i type="int" name="ISIF">     2</i>
   <i name="PSTRESS">      0.00000000</i>
   <i name="EDIFFG">      0.00001000</i>
   <i type="int" name="NFREE">     0</i>
   <i name="POTIM">      0.50000000</i>
   <i name="SMASS">     -3.00000000</i>
   <i name="SCALEE">      1.00000000</i>
  </separator>
  <separator name="ionic md" >
   <i name="TEBEG">      0.00010000</i>
   <i name="TEEND">      0.00010000</i>
   <i type="int" name="NBLOCK">     1</i>
   <i type="int" name="KBLOCK">     1</i>
   <i type="int" name="NPACO">   256</i>
   <i name="APACO">     16.00000000</i>
  </separator>
  <separator name="symmetry" >
   <i type="int" name="ISYM">     0</i>
   <i name="SYMPREC">      0.00001000</i>
  </separator>
  <separator name="dos" >
   <i type="int" name="LORBIT">     0</i>
   <v name="RWIGS">     -1.00000000     -1.00000000     -1.00000000     -1.00000000</v>
   <i type="int" name="NEDOS">   301</i>
   <i name="EMIN">     10.00000000</i>
   <i name="EMAX">    -10.00000000</i>
   <i name="EFERMI">      0.00000000</i>
  </separator>
  <separator name="writing" >
   <i type="int" name="NWRITE">     1</i>
   <i type="logical" name="LWAVE"> F  </i>
   <i type="logical" name="LDOWNSAMPLE"> F  </i>
   <i type="logical" name="LCHARG"> T  </i>
   <i type="logical" name="LPARD"> F  </i>
   <i type="logical" name="LVTOT"> F  </i>
   <i type="logical" name="LVHAR"> F  </i>
   <i type="logical" name="LELF"> F  </i>
   <i type="logical" name="LOPTICS"> F  </i>
   <v name="STM">      0.00000000      0.00000000      0.00000000      0.00000000      0.00000000      0.00000000      0.00000000</v>
  </separator>
  <separator name="performance" >
   <i type="int" name="NPAR">     2</i>
   <i type="int" name="NSIM">     4</i>
   <i type="int" name="NBLK">    -1</i>
   <i type="logical" name="LPLANE"> T  </i>
   <i type="logical" name="LSCALAPACK"> T  </i>
   <i type="logical" name="LSCAAWARE"> F  </i>
   <i type="logical" name="LSCALU"> F  </i>
   <i type="logical" name="LASYNC"> F  </i>
   <i type="logical" name="LORBITALREAL"> F  </i>
  </separator>
  <separator name="miscellaneous" >
   <i type="int" name="IDIOT">     3</i>
   <i type="int" name="ISPECIAL">     0</i>
   <i type="logical" name="LMUSIC"> F  </i>
   <v name="POMASS">      7.01000000     16.00000000     32.06600000     55.84700000</v>
   <v name="DARWINR">      0.00000000      0.00000000      0.00000000      0.00000000</v>
   <v name="DARWINV">      1.00000000      1.00000000      1.00000000      1.00000000</v>
   <i type="logical" name="LCORR"> T  </i>
  </separator>
  <i type="logical" name="GGA_COMPAT"> T  </i>
  <i type="logical" name="LBERRY"> F  </i>
  <i type="int" name="ICORELEVEL">     0</i>
  <i type="logical" name="LDAU"> T  </i>
  <v type="int" name="LDAUTYPE">     2</v>
  <v type="int" name="LDAUL">    -1</v>
  <v name="LDAUU">      0.00000000</v>
  <v name="LDAUJ">      0.00000000</v>
  <i type="int" name="LDAUPRINT">     0</i>
  <i type="int" name="I_CONSTRAINED_M">     0</i>
  <separator name="electronic exchange-correlation" >
   <i type="string" name="GGA">PE</i>
   <i type="int" name="VOSKOWN">     0</i>
   <i type="logical" name="LHFCALC"> F  </i>
   <i type="string" name="PRECFOCK"></i>
   <i type="logical" name="LSYMGRAD"> F  </i>
   <i type="logical" name="LHFONE"> F  </i>
   <i type="logical" name="LRHFCALC"> F  </i>
   <i type="logical" name="LTHOMAS"> F  </i>
   <i type="logical" name="LMODELHF"> F  </i>
   <i name="ENCUT4O">     -1.00000000</i>
   <i type="int" name="EXXOEP">     0</i>
   <i type="int" name="FOURORBIT">     0</i>
   <i name="AEXX">      0.00000000</i>
   <i name="HFALPHA">      0.00000000</i>
   <i name="MCALPHA">      0.00000000</i>
   <i name="ALDAX">      1.00000000</i>
   <i name="AGGAX">      1.00000000</i>
   <i name="ALDAC">      1.00000000</i>
   <i name="AGGAC">      1.00000000</i>
   <i type="int" name="NKREDX">     1</i>
   <i type="int" name="NKREDY">     1</i>
   <i type="int" name="NKREDZ">     1</i>
   <i type="logical" name="SHIFTRED"> F  </i>
   <i type="logical" name="ODDONLY"> F  </i>
   <i type="logical" name="EVENONLY"> F  </i>
   <i type="int" name="LMAXFOCK">     0</i>
   <i type="int" name="NMAXFOCKAE">     0</i>
   <i type="logical" name="LFOCKAEDFT"> F  </i>
   <i name="HFSCREEN">      0.00000000</i>
   <i name="HFSCREENC">      0.00000000</i>
   <i type="int" name="NBANDSGWLOW">     0</i>
  </separator>
  <separator name="vdW DFT" >
   <i type="logical" name="LUSE_VDW"> F  </i>
   <i name="Zab_VDW">     -0.84910000</i>
   <i name="PARAM1">      0.12340000</i>
   <i name="PARAM2">      1.00000000</i>
   <i name="PARAM3">      0.00000000</i>
  </separator>
  <separator name="model GW" >
   <i type="int" name="MODEL_GW">     0</i>
   <i name="MODEL_EPS0">      8.59048892</i>
   <i name="MODEL_ALPHA">      1.00000000</i>
  </separator>
  <separator name="linear response parameters" >
   <i type="logical" name="LEPSILON"> F  </i>
   <i type="logical" name="LRPA"> F  </i>
   <i type="logical" name="LNABLA"> F  </i>
   <i type="logical" name="LVEL"> F  </i>
   <i type="int" name="KINTER">     0</i>
   <i name="CSHIFT">      0.10000000</i>
   <i name="OMEGAMAX">     -1.00000000</i>
   <i name="DEG_THRESHOLD">      0.00200000</i>
   <i name="RTIME">     -0.10000000</i>
   <i name="WPLASMAI">      0.00000000</i>
   <v name="DFIELD">      0.00000000      0.00000000      0.00000000</v>
   <v name="WPLASMA">      0.00000000      0.00000000      0.00000000      0.00000000      0.00000000      0.00000000      0.00000000      0.00000000      0.00000000</v>
  </separator>
  <separator name="orbital magnetization" >
   <i type="logical" name="NUCIND"> F  </i>
   <v name="MAGPOS">      0.00000000      0.00000000      0.00000000</v>
   <i type="logical" name="LNICSALL"> T  </i>
   <i type="logical" name="ORBITALMAG"> F  </i>
   <i type="logical" name="LMAGBLOCH"> F  </i>
   <i type="logical" name="LCHIMAG"> F  </i>
   <i type="logical" name="LGAUGE"> T  </i>
   <i type="int" name="MAGATOM">     0</i>
   <v name="MAGDIPOL">      0.00000000      0.00000000      0.00000000</v>
   <v name="AVECCONST">      0.00000000      0.00000000      0.00000000</v>
  </separator>
  <separator name="response functions" >
   <i type="logical" name="LADDER"> F  </i>
   <i type="logical" name="LRPAFORCE"> F  </i>
   <i type="logical" name="LFXC"> F  </i>
   <i type="logical" name="LHARTREE"> T  </i>
   <i type="int" name="IBSE">     0</i>
   <v type="int" name="KPOINT">    -1     0     0     0</v>
   <i type="logical" name="LTCTE"> F  </i>
   <i type="logical" name="LTETE"> F  </i>
   <i type="logical" name="LTRIPLET"> F  </i>
   <i type="logical" name="LFXCEPS"> F  </i>
   <i type="logical" name="LFXHEG"> F  </i>
   <i type="int" name="NATURALO">     2</i>
   <i type="logical" name="L2ORDER"> F  </i>
   <i type="logical" name="LMP2LT"> F  </i>
   <i type="logical" name="LUSEW"> F  </i>
   <i name="ENCUTGW">     -2.00000000</i>
   <i name="ENCUTGWSOFT">     -2.00000000</i>
   <i name="ENCUTLF">     -1.00000000</i>
   <i type="int" name="LMAXMP2">    -1</i>
   <i name="SCISSOR">      0.00000000</i>
   <i type="int" name="NOMEGA">     0</i>
   <i type="int" name="NOMEGAR">     0</i>
   <i type="int" name="NBANDSGW">    -1</i>
   <i type="int" name="NBANDSO">    -1</i>
   <i type="int" name="NBANDSV">    -1</i>
   <i type="int" name="NELM">   200</i>
   <i type="int" name="NELMHF">     1</i>
   <i type="int" name="DIM">     3</i>
   <i type="int" name="ANTIRES">     0</i>
   <i name="OMEGAMAX">    -30.00000000</i>
   <i name="OMEGAMIN">    -30.00000000</i>
   <i name="OMEGATL">   -200.00000000</i>
   <i type="int" name="OMEGAGRID">   140</i>
   <i name="CSHIFT">     -0.10000000</i>
   <i type="logical" name="SELFENERGY"> F  </i>
   <i type="logical" name="LSPECTRAL"> F  </i>
   <i type="logical" name="LSPECTRALGW"> F  </i>
   <i type="logical" name="LSINGLES"> F  </i>
   <i type="logical" name="LFERMIGW"> F  </i>
   <i type="logical" name="ODDONLYGW"> F  </i>
   <i type="logical" name="EVENONLYGW"> F  </i>
   <i type="int" name="NKREDLFX">     1</i>
   <i type="int" name="NKREDLFY">     1</i>
   <i type="int" name="NKREDLFZ">     1</i>
   <i type="int" name="MAXMEM">  2800</i>
   <i type="int" name="TELESCOPE">     0</i>
   <i type="int" name="TAUPAR">     1</i>
   <i type="int" name="OMEGAPAR">    -1</i>
   <i name="LAMBDA">      1.00000000</i>
  </separator>
  <separator name="External order field" >
   <i name="OFIELD_KAPPA">      0.00000000</i>
   <v name="OFIELD_K">      0.00000000      0.00000000      0.00000000</v>
   <i name="OFIELD_Q6_NEAR">      0.00000000</i>
   <i name="OFIELD_Q6_FAR">      0.00000000</i>
   <i name="OFIELD_A">      0.00000000</i>
  </separator>
 </parameters>
 <atominfo>
  <atoms>      88 </atoms>
  <types>       4 </types>
  <array name="atoms" >
   <dimension dim="1">ion</dimension>
   <field type="string">element</field>
   <field type="int">atomtype</field>
   <set>
    <rc><c>Li</c><c>   1</c></rc>
    <rc><c>Li</c><c>   1</c></rc>
    <rc><c>Li</c><c>   1</c></rc>
    <rc><c>Li</c><c>   1</c></rc>
    <rc><c>Li</c><c>   1</c></rc>
    <rc><c>Li</c><c>   1</c></rc>
    <rc><c>Li</c><c>   1</c></rc>
    <rc><c>Li</c><c>   1</c></rc>
    <rc><c>Li</c><c>   1</c></rc>
    <rc><c>Li</c><c>   1</c></rc>
    <rc><c>Li</c><c>   1</c></rc>
    <rc><c>Li</c><c>   1</c></rc>
    <rc><c>Li</c><c>   1</c></rc>
    <rc><c>Li</c><c>   1</c></rc>
    <rc><c>Li</c><c>   1</c></rc>
    <rc><c>Li</c><c>   1</c></rc>
    <rc><c>O </c><c>   2</c></rc>
    <rc><c>O </c><c>   2</c></rc>
    <rc><c>O </c><c>   2</c></rc>
    <rc><c>O </c><c>   2</c></rc>
    <rc><c>O </c><c>   2</c></rc>
    <rc><c>O </c><c>   2</c></rc>
    <rc><c>O </c><c>   2</c></rc>
    <rc><c>O </c><c>   2</c></rc>
    <rc><c>O </c><c>   2</c></rc>
    <rc><c>O </c><c>   2</c></rc>
    <rc><c>O </c><c>   2</c></rc>
    <rc><c>O </c><c>   2</c></rc>
    <rc><c>O </c><c>   2</c></rc>
    <rc><c>O </c><c>   2</c></rc>
    <rc><c>O </c><c>   2</c></rc>
    <rc><c>O </c><c>   2</c></rc>
    <rc><c>S </c><c>   3</c></rc>
    <rc><c>S </c><c>   3</c></rc>
    <rc><c>S </c><c>   3</c></rc>
    <rc><c>S </c><c>   3</c></rc>
    <rc><c>S </c><c>   3</c></rc>
    <rc><c>S </c><c>   3</c></rc>
    <rc><c>S </c><c>   3</c></rc>
    <rc><c>S </c><c>   3</c></rc>
    <rc><c>S </c><c>   3</c></rc>
    <rc><c>S </c><c>   3</c></rc>
    <rc><c>S </c><c>   3</c></rc>
    <rc><c>S </c><c>   3</c></rc>
    <rc><c>S </c><c>   3</c></rc>
    <rc><c>S </c><c>   3</c></rc>
    <rc><c>S </c><c>   3</c></rc>
    <rc><c>S </c><c>   3</c></rc>
    <rc><c>S </c><c>   3</c></rc>
    <rc><c>S </c><c>   3</c></rc>
    <rc><c>S </c><c>   3</c></rc>
    <rc><c>S </c><c>   3</c></rc>
    <rc><c>S </c><c>   3</c></rc>
    <rc><c>S </c><c>   3</c></rc>
    <rc><c>S </c><c>   3</c></rc>
    <rc><c>S </c><c>   3</c></rc>
    <rc><c>Fe</c><c>   4</c></rc>
    <rc><c>Fe</c><c>   4</c></rc>
    <rc><c>Fe</c><c>   4</c></rc>
    <rc><c>Fe</c><c>   4</c></rc>
    <rc><c>Fe</c><c>   4</c></rc>
    <rc><c>Fe</c><c>   4</c></rc>
    <rc><c>Fe</c><c>   4</c></rc>
    <rc><c>Fe</c><c>   4</c></rc>
    <rc><c>Fe</c><c>   4</c></rc>
    <rc><c>Fe</c><c>   4</c></rc>
    <rc><c>Fe</c><c>   4</c></rc>
    <rc><c>Fe</c><c>   4</c></rc>
    <rc><c>Fe</c><c>   4</c></rc>
    <rc><c>Fe</c><c>   4</c></rc>
    <rc><c>Fe</c><c>   4</c></rc>
    <rc><c>Fe</c><c>   4</c></rc>
    <rc><c>Fe</c><c>   4</c></rc>
    <rc><c>Fe</c><c>   4</c></rc>
    <rc><c>Fe</c><c>   4</c></rc>
    <rc><c>Fe</c><c>   4</c></rc>
    <rc><c>Fe</c><c>   4</c></rc>
    <rc><c>Fe</c><c>   4</c></rc>
    <rc><c>Fe</c><c>   4</c></rc>
    <rc><c>Fe</c><c>   4</c></rc>
    <rc><c>Fe</c><c>   4</c></rc>
    <rc><c>Fe</c><c>   4</c></rc>
    <rc><c>Fe</c><c>   4</c></rc>
    <rc><c>Fe</c><c>   4</c></rc>
    <rc><c>Fe</c><c>   4</c></rc>
    <rc><c>Fe</c><c>   4</c></rc>
    <rc><c>Fe</c><c>   4</c></rc>
    <rc><c>Fe</c><c>   4</c></rc>
   </set>
  </array>
  <array name="atomtypes" >
   <dimension dim="1">type</dimension>
   <field type="int">atomspertype</field>
   <field type="string">element</field>
   <field>mass</field>
   <field>valence</field>
   <field type="string">pseudopotential</field>
   <set>
    <rc><c>  16</c><c>Li</c><c>      7.01000000</c><c>      3.00000000</c><c>  PAW_PBE Li_sv 10Sep2004               </c></rc>
    <rc><c>  16</c><c>O </c><c>     16.00000000</c><c>      6.00000000</c><c>  PAW_PBE O 08Apr2002                   </c></rc>
    <rc><c>  24</c><c>S </c><c>     32.06600000</c><c>      6.00000000</c><c>  PAW_PBE S 06Sep2000                   </c></rc>
    <rc><c>  32</c><c>Fe</c><c>     55.84700000</c><c>     14.00000000</c><c>  PAW_PBE Fe_pv 02Aug2007               </c></rc>
   </set>
  </array>
 </atominfo>
 <structure name="initialpos" >
  <crystal>
   <varray name="basis" >
    <v>      11.11223374       0.00000000      -0.00029034 </v>
    <v>       0.00000000      11.11745194       0.00000000 </v>
    <v>      -2.77510898       0.00000000      10.19872221 </v>
   </varray>
   <i name="volume">   1259.93837498 </i>
   <varray name="rec_basis" >
    <v>       0.08999155       0.00000000       0.02448702 </v>
    <v>       0.00000000       0.08994867       0.00000000 </v>
    <v>       0.00000256       0.00000000       0.09805220 </v>
   </varray>
  </crystal>
  <varray name="positions" >
   <v>       0.28894969       0.46933910       0.15583616 </v>
   <v>       0.78894969       0.46933910       0.15583616 </v>
   <v>       0.28894969       0.96933910       0.15583616 </v>
   <v>       0.78894969       0.96933910       0.15583616 </v>
   <v>       0.04646972       0.21934976       0.18586770 </v>
   <v>       0.54646972       0.21934976       0.18586770 </v>
   <v>       0.04646972       0.71934976       0.18586770 </v>
   <v>       0.54646972       0.71934976       0.18586770 </v>
   <v>       0.45353028       0.46934976       0.81413230 </v>
   <v>       0.95353028       0.46934976       0.81413230 </v>
   <v>       0.45353028       0.96934976       0.81413230 </v>
   <v>       0.95353028       0.96934976       0.81413230 </v>
   <v>       0.21105031       0.21933910       0.84416384 </v>
   <v>       0.71105031       0.21933910       0.84416384 </v>
   <v>       0.21105031       0.71933910       0.84416384 </v>
   <v>       0.71105031       0.71933910       0.84416384 </v>
   <v>       0.07654971       0.09530995       0.80250593 </v>
   <v>       0.57654971       0.09530995       0.80250593 </v>
   <v>       0.07654971       0.59530995       0.80250593 </v>
   <v>       0.57654971       0.59530995       0.80250593 </v>
   <v>       0.32470466       0.34338175       0.80250383 </v>
   <v>       0.82470466       0.34338175       0.80250383 </v>
   <v>       0.32470466       0.84338175       0.80250383 </v>
   <v>       0.82470466       0.84338175       0.80250383 </v>
   <v>       0.17529534       0.09338175       0.19749617 </v>
   <v>       0.67529534       0.09338175       0.19749617 </v>
   <v>       0.17529534       0.59338175       0.19749617 </v>
   <v>       0.67529534       0.59338175       0.19749617 </v>
   <v>       0.42345029       0.34530995       0.19749407 </v>
   <v>       0.92345029       0.34530995       0.19749407 </v>
   <v>       0.42345029       0.84530995       0.19749407 </v>
   <v>       0.92345029       0.84530995       0.19749407 </v>
   <v>       0.21868463       0.34523395       0.37102476 </v>
   <v>       0.71868463       0.34523395       0.37102476 </v>
   <v>       0.21868463       0.84523395       0.37102476 </v>
   <v>       0.71868463       0.84523395       0.37102476 </v>
   <v>       0.46681660       0.09344897       0.37102399 </v>
   <v>       0.96681660       0.09344897       0.37102399 </v>
   <v>       0.46681660       0.59344897       0.37102399 </v>
   <v>       0.96681660       0.59344897       0.37102399 </v>
   <v>       0.03318340       0.34344897       0.62897601 </v>
   <v>       0.53318340       0.34344897       0.62897601 </v>
   <v>       0.03318340       0.84344897       0.62897601 </v>
   <v>       0.53318340       0.84344897       0.62897601 </v>
   <v>       0.28131537       0.09523395       0.62897524 </v>
   <v>       0.78131537       0.09523395       0.62897524 </v>
   <v>       0.28131537       0.59523395       0.62897524 </v>
   <v>       0.78131537       0.59523395       0.62897524 </v>
   <v>       0.12439279       0.34524255       0.00000412 </v>
   <v>       0.62439279       0.34434306       0.00000412 </v>
   <v>       0.12439279       0.84434306       0.00000412 </v>
   <v>       0.62439279       0.84434306       0.00000412 </v>
   <v>       0.37560721       0.09434306       0.99999588 </v>
   <v>       0.87560721       0.09434306       0.99999588 </v>
   <v>       0.37560721       0.59434306       0.99999588 </v>
   <v>       0.87560721       0.59434306       0.99999588 </v>
   <v>       0.03824426       0.10634799       0.60632306 </v>
   <v>       0.53824426       0.10634799       0.60632306 </v>
   <v>       0.03824426       0.60634799       0.60632306 </v>
   <v>       0.53824426       0.60634799       0.60632306 </v>
   <v>       0.26492712       0.33232651       0.60632763 </v>
   <v>       0.76492712       0.33232651       0.60632763 </v>
   <v>       0.26492712       0.83232651       0.60632763 </v>
   <v>       0.76492712       0.83232651       0.60632763 </v>
   <v>       0.23507288       0.08232651       0.39367237 </v>
   <v>       0.73507288       0.08232651       0.39367237 </v>
   <v>       0.23507288       0.58232651       0.39367237 </v>
   <v>       0.73507288       0.58232651       0.39367237 </v>
   <v>       0.46175574       0.35634799       0.39367694 </v>
   <v>       0.96175574       0.35634799       0.39367694 </v>
   <v>       0.46175574       0.85634799       0.39367694 </v>
   <v>       0.96175574       0.85634799       0.39367694 </v>
   <v>       0.03848398       0.46936404       0.15397331 </v>
   <v>       0.53848398       0.46936404       0.15397331 </v>
   <v>       0.03848398       0.96936404       0.15397331 </v>
   <v>       0.53848398       0.96936404       0.15397331 </v>
   <v>       0.28861657       0.21935690       0.15447525 </v>
   <v>       0.78861657       0.21935690       0.15447525 </v>
   <v>       0.28861657       0.71935690       0.15447525 </v>
   <v>       0.78861657       0.71935690       0.15447525 </v>
   <v>       0.21138343       0.46935690       0.84552475 </v>
   <v>       0.71138343       0.46935690       0.84552475 </v>
   <v>       0.21138343       0.96935690       0.84552475 </v>
   <v>       0.71138343       0.96935690       0.84552475 </v>
   <v>       0.46151602       0.21936404       0.84602669 </v>
   <v>       0.96151602       0.21936404       0.84602669 </v>
   <v>       0.46151602       0.71936404       0.84602669 </v>
   <v>       0.96151602       0.71936404       0.84602669 </v>
  </varray>
 </structure>
 <calculation>
  <scstep>
   <time name="dav">  308.04  310.83</time>
   <time name="total">  311.37  314.19</time>
   <energy>
    <i name="alphaZ">   2314.49656628 </i>
    <i name="ewald"> -57723.03553710 </i>
    <i name="hartreedc"> -30348.88412670 </i>
    <i name="XCdc">   3229.29958108 </i>
    <i name="pawpsdc">  92679.89207989 </i>
    <i name="pawaedc"> -95535.38516353 </i>
    <i name="eentropy">     -0.01854901 </i>
    <i name="bandstr">    349.80121417 </i>
    <i name="atom">  95443.47970955 </i>
    <i name="e_fr_energy">  10409.64577462 </i>
    <i name="e_wo_entrp">  10409.66432363 </i>
    <i name="e_0_energy">  10409.65504913 </i>
   </energy>
  </scstep>
  <scstep>
   <time name="dav">  302.21  304.74</time>
   <time name="total">  302.22  304.75</time>
   <energy>
    <i name="e_fr_energy">   1177.48206413 </i>
    <i name="e_wo_entrp">   1177.54789032 </i>
    <i name="e_0_energy">   1177.51497723 </i>
   </energy>
  </scstep>
  <scstep>
   <time name="dav">  318.86  321.46</time>
   <time name="total">  318.86  321.46</time>
   <energy>
    <i name="e_fr_energy">   -308.11988098 </i>
    <i name="e_wo_entrp">   -308.11988098 </i>
    <i name="e_0_energy">   -308.11988098 </i>
   </energy>
  </scstep>
  <scstep>
   <time name="dav">  338.32  341.68</time>
   <time name="total">  338.33  341.69</time>
   <energy>
    <i name="e_fr_energy">   -476.30104499 </i>
    <i name="e_wo_entrp">   -476.30104499 </i>
    <i name="e_0_energy">   -476.30104499 </i>
   </energy>
  </scstep>
  <scstep>
   <time name="dav">  450.82  454.74</time>
   <time name="total">  459.98  464.07</time>
   <energy>
    <i name="e_fr_energy">   -488.73409670 </i>
    <i name="e_wo_entrp">   -488.73409670 </i>
    <i name="e_0_energy">   -488.73409670 </i>
   </energy>
  </scstep>
  <scstep>
   <time name="dav">  391.63  395.61</time>
   <time name="total">  404.23  408.28</time>
   <energy>
    <i name="e_fr_energy">   -489.20050290 </i>
    <i name="e_wo_entrp">   -489.20050290 </i>
    <i name="e_0_energy">   -489.20050290 </i>
   </energy>
  </scstep>
  <scstep>
   <time name="dav">  423.41  426.88</time>
   <time name="total">  435.98  439.55</time>
   <energy>
    <i name="e_fr_energy">   -489.21716537 </i>
    <i name="e_wo_entrp">   -489.21716537 </i>
    <i name="e_0_energy">   -489.21716537 </i>
   </energy>
  </scstep>
  <scstep>
   <time name="dav">  396.75  400.31</time>
   <time name="total">  409.42  413.10</time>
   <energy>
    <i name="e_fr_energy">   -489.21667115 </i>
    <i name="e_wo_entrp">   -489.21667115 </i>
    <i name="e_0_energy">   -489.21667115 </i>
   </energy>
  </scstep>
  <scstep>
   <time name="dav">  435.21  438.81</time>
   <time name="total">  447.88  451.55</time>
   <energy>
    <i name="e_fr_energy">   -489.21628618 </i>
    <i name="e_wo_entrp">   -489.21628618 </i>
    <i name="e_0_energy">   -489.21628618 </i>
   </energy>
  </scstep>
  <scstep>
   <time name="dav">  434.45  438.10</time>
   <time name="total">  447.05  450.81</time>
   <energy>
    <i name="e_fr_energy">   -489.21562732 </i>
    <i name="e_wo_entrp">   -489.21562732 </i>
    <i name="e_0_energy">   -489.21562732 </i>
   </energy>
  </scstep>
  <scstep>
   <time name="dav">  385.31  388.34</time>
   <time name="total">  397.90  401.11</time>
   <energy>
    <i name="e_fr_energy">   -489.21513324 </i>
    <i name="e_wo_entrp">   -489.21513324 </i>
    <i name="e_0_energy">   -489.21513324 </i>
   </energy>
  </scstep>
  <scstep>
   <time name="dav">  362.86  366.25</time>
   <time name="total">  375.53  379.03</time>
   <energy>
    <i name="e_fr_energy">   -489.21511712 </i>
    <i name="e_wo_entrp">   -489.21511712 </i>
    <i name="e_0_energy">   -489.21511712 </i>
   </energy>
  </scstep>
  <scstep>
   <time name="dav">  365.86  369.41</time>
   <time name="total">  378.49  382.24</time>
   <energy>
    <i name="e_fr_energy">   -489.21512393 </i>
    <i name="e_wo_entrp">   -489.21512393 </i>
    <i name="e_0_energy">   -489.21512393 </i>
   </energy>
  </scstep>
  <scstep>
   <time name="dav">  242.35  244.76</time>
   <time name="total">  255.16  257.63</time>
   <energy>
    <i name="e_fr_energy">   -489.21512221 </i>
    <i name="e_wo_entrp">   -489.21512221 </i>
    <i name="e_0_energy">   -489.21512221 </i>
   </energy>
  </scstep>
  <scstep>
   <time name="dav">  308.26  310.61</time>
   <time name="total">  320.94  323.39</time>
   <energy>
    <i name="e_fr_energy">   -489.21511309 </i>
    <i name="e_wo_entrp">   -489.21511309 </i>
    <i name="e_0_energy">   -489.21511309 </i>
   </energy>
  </scstep>
  <scstep>
   <time name="dav">  293.15  295.80</time>
   <time name="total">  296.45  299.17</time>
   <energy>
    <i name="alphaZ">   2314.49656628 </i>
    <i name="ewald"> -57723.03553710 </i>
    <i name="hartreedc"> -30348.87977459 </i>
    <i name="XCdc">   3229.29997961 </i>
    <i name="pawpsdc">  92678.92851474 </i>
    <i name="pawaedc"> -95534.40976287 </i>
    <i name="eentropy">     -0.00000000 </i>
    <i name="bandstr"> -10549.09480927 </i>
    <i name="atom">  95443.47970955 </i>
    <i name="e_fr_energy">   -489.21511365 </i>
    <i name="e_wo_entrp">   -489.21511365 </i>
    <i name="e_0_energy">   -489.21511365 </i>
   </energy>
  </scstep>
  <structure>
   <crystal>
    <varray name="basis" >
     <v>      11.11223374       0.00000000      -0.00029034 </v>
     <v>       0.00000000      11.11745194       0.00000000 </v>
     <v>      -2.77510898       0.00000000      10.19872221 </v>
    </varray>
    <i name="volume">   1259.93837498 </i>
    <varray name="rec_basis" >
     <v>       0.08999155       0.00000000       0.02448702 </v>
     <v>       0.00000000       0.08994867       0.00000000 </v>
     <v>       0.00000256       0.00000000       0.09805220 </v>
    </varray>
   </crystal>
   <varray name="positions" >
    <v>       0.28894969       0.46933910       0.15583616 </v>
    <v>       0.78894969       0.46933910       0.15583616 </v>
    <v>       0.28894969       0.96933910       0.15583616 </v>
    <v>       0.78894969       0.96933910       0.15583616 </v>
    <v>       0.04646972       0.21934976       0.18586770 </v>
    <v>       0.54646972       0.21934976       0.18586770 </v>
    <v>       0.04646972       0.71934976       0.18586770 </v>
    <v>       0.54646972       0.71934976       0.18586770 </v>
    <v>       0.45353028       0.46934976       0.81413230 </v>
    <v>       0.95353028       0.46934976       0.81413230 </v>
    <v>       0.45353028       0.96934976       0.81413230 </v>
    <v>       0.95353028       0.96934976       0.81413230 </v>
    <v>       0.21105031       0.21933910       0.84416384 </v>
    <v>       0.71105031       0.21933910       0.84416384 </v>
    <v>       0.21105031       0.71933910       0.84416384 </v>
    <v>       0.71105031       0.71933910       0.84416384 </v>
    <v>       0.07654971       0.09530995       0.80250593 </v>
    <v>       0.57654971       0.09530995       0.80250593 </v>
    <v>       0.07654971       0.59530995       0.80250593 </v>
    <v>       0.57654971       0.59530995       0.80250593 </v>
    <v>       0.32470466       0.34338175       0.80250383 </v>
    <v>       0.82470466       0.34338175       0.80250383 </v>
    <v>       0.32470466       0.84338175       0.80250383 </v>
    <v>       0.82470466       0.84338175       0.80250383 </v>
    <v>       0.17529534       0.09338175       0.19749617 </v>
    <v>       0.67529534       0.09338175       0.19749617 </v>
    <v>       0.17529534       0.59338175       0.19749617 </v>
    <v>       0.67529534       0.59338175       0.19749617 </v>
    <v>       0.42345029       0.34530995       0.19749407 </v>
    <v>       0.92345029       0.34530995       0.19749407 </v>
    <v>       0.42345029       0.84530995       0.19749407 </v>
    <v>       0.92345029       0.84530995       0.19749407 </v>
    <v>       0.21868463       0.34523395       0.37102476 </v>
    <v>       0.71868463       0.34523395       0.37102476 </v>
    <v>       0.21868463       0.84523395       0.37102476 </v>
    <v>       0.71868463       0.84523395       0.37102476 </v>
    <v>       0.46681660       0.09344897       0.37102399 </v>
    <v>       0.96681660       0.09344897       0.37102399 </v>
    <v>       0.46681660       0.59344897       0.37102399 </v>
    <v>       0.96681660       0.59344897       0.37102399 </v>
    <v>       0.03318340       0.34344897       0.62897601 </v>
    <v>       0.53318340       0.34344897       0.62897601 </v>
    <v>       0.03318340       0.84344897       0.62897601 </v>
    <v>       0.53318340       0.84344897       0.62897601 </v>
    <v>       0.28131537       0.09523395       0.62897524 </v>
    <v>       0.78131537       0.09523395       0.62897524 </v>
    <v>       0.28131537       0.59523395       0.62897524 </v>
    <v>       0.78131537       0.59523395       0.62897524 </v>
    <v>       0.12439279       0.34524255       0.00000412 </v>
    <v>       0.62439279       0.34434306       0.00000412 </v>
    <v>       0.12439279       0.84434306       0.00000412 </v>
    <v>       0.62439279       0.84434306       0.00000412 </v>
    <v>       0.37560721       0.09434306       0.99999588 </v>
    <v>       0.87560721       0.09434306       0.99999588 </v>
    <v>       0.37560721       0.59434306       0.99999588 </v>
    <v>       0.87560721       0.59434306       0.99999588 </v>
    <v>       0.03824426       0.10634799       0.60632306 </v>
    <v>       0.53824426       0.10634799       0.60632306 </v>
    <v>       0.03824426       0.60634799       0.60632306 </v>
    <v>       0.53824426       0.60634799       0.60632306 </v>
    <v>       0.26492712       0.33232651       0.60632763 </v>
    <v>       0.76492712       0.33232651       0.60632763 </v>
    <v>       0.26492712       0.83232651       0.60632763 </v>
    <v>       0.76492712       0.83232651       0.60632763 </v>
    <v>       0.23507288       0.08232651       0.39367237 </v>
    <v>       0.73507288       0.08232651       0.39367237 </v>
    <v>       0.23507288       0.58232651       0.39367237 </v>
    <v>       0.73507288       0.58232651       0.39367237 </v>
    <v>       0.46175574       0.35634799       0.39367694 </v>
    <v>       0.96175574       0.35634799       0.39367694 </v>
    <v>       0.46175574       0.85634799       0.39367694 </v>
    <v>       0.96175574       0.85634799       0.39367694 </v>
    <v>       0.03848398       0.46936404       0.15397331 </v>
    <v>       0.53848398       0.46936404       0.15397331 </v>
    <v>       0.03848398       0.96936404       0.15397331 </v>
    <v>       0.53848398       0.96936404       0.15397331 </v>
    <v>       0.28861657       0.21935690       0.15447525 </v>
    <v>       0.78861657       0.21935690       0.15447525 </v>
    <v>       0.28861657       0.71935690       0.15447525 </v>
    <v>       0.78861657       0.71935690       0.15447525 </v>
    <v>       0.21138343       0.46935690       0.84552475 </v>
    <v>       0.71138343       0.46935690       0.84552475 </v>
    <v>       0.21138343       0.96935690       0.84552475 </v>
    <v>       0.71138343       0.96935690       0.84552475 </v>
    <v>       0.46151602       0.21936404       0.84602669 </v>
    <v>       0.96151602       0.21936404       0.84602669 </v>
    <v>       0.46151602       0.71936404       0.84602669 </v>
    <v>       0.96151602       0.71936404       0.84602669 </v>
   </varray>
  </structure>
  <varray name="forces" >
   <v>       0.00100275       0.00297377       0.00149014 </v>
   <v>       0.00030579       0.00037256      -0.00021288 </v>
   <v>       0.00025918      -0.00097744       0.00005982 </v>
   <v>      -0.00014920      -0.00041440       0.00030847 </v>
   <v>      -0.00108689       0.00103421       0.00079309 </v>
   <v>       0.00017844       0.00036337       0.00020071 </v>
   <v>       0.00022955      -0.00095209      -0.00013883 </v>
   <v>      -0.00026825      -0.00040291      -0.00035178 </v>
   <v>      -0.00019354       0.00036281       0.00017370 </v>
   <v>       0.00106984       0.00104232       0.00073317 </v>
   <v>       0.00025845      -0.00040699      -0.00037562 </v>
   <v>      -0.00021960      -0.00094940      -0.00016511 </v>
   <v>      -0.00092723       0.00293265       0.00148048 </v>
   <v>      -0.00030151       0.00037799      -0.00012178 </v>
   <v>      -0.00026732      -0.00097163       0.00013342 </v>
   <v>       0.00016683      -0.00041307       0.00039358 </v>
   <v>      -0.00102140       0.00613896       0.00555539 </v>
   <v>       0.00016403      -0.00008064       0.00028608 </v>
   <v>      -0.00087674       0.00614980      -0.00548484 </v>
   <v>       0.00022242      -0.00010352      -0.00047003 </v>
   <v>       0.00075958      -0.00235741      -0.00015913 </v>
   <v>       0.00085910      -0.00229163       0.00008321 </v>
   <v>      -0.00050499       0.00110536      -0.00001973 </v>
   <v>      -0.00053854       0.00106982      -0.00014796 </v>
   <v>       0.00118041       0.00613911      -0.00527615 </v>
   <v>       0.00009375      -0.00006065      -0.00028722 </v>
   <v>       0.00134932       0.00624568       0.00576315 </v>
   <v>       0.00015504      -0.00003803       0.00047763 </v>
   <v>      -0.00109665      -0.00241383      -0.00000268 </v>
   <v>      -0.00112583      -0.00229785       0.00023626 </v>
   <v>       0.00022394       0.00109773       0.00015141 </v>
   <v>       0.00018616       0.00100715       0.00001834 </v>
   <v>       0.00010354      -0.00154571       0.00014671 </v>
   <v>      -0.00015434      -0.00049843       0.00013309 </v>
   <v>      -0.00006730       0.00116897       0.00006560 </v>
   <v>      -0.00005643       0.00029649       0.00012409 </v>
   <v>      -0.00011626       0.00019003      -0.00027816 </v>
   <v>       0.00034253       0.00008851      -0.00010202 </v>
   <v>       0.00037147       0.00007935       0.00053497 </v>
   <v>      -0.00019600       0.00012354       0.00069546 </v>
   <v>      -0.00023808      -0.00129863      -0.00016543 </v>
   <v>       0.00004569      -0.00025240      -0.00016922 </v>
   <v>      -0.00004521       0.00140978      -0.00021298 </v>
   <v>      -0.00006449       0.00055416      -0.00023245 </v>
   <v>      -0.00021011      -0.00020925       0.00024340 </v>
   <v>       0.00026955      -0.00008096       0.00037053 </v>
   <v>       0.00026221      -0.00009496      -0.00061539 </v>
   <v>      -0.00026559      -0.00013666      -0.00039229 </v>
   <v>      -0.00006249      -0.06536165      -0.00635913 </v>
   <v>      -0.00001657      -0.00061668       0.00006178 </v>
   <v>      -0.00001126       0.00123199       0.00008723 </v>
   <v>      -0.00000691       0.00104124       0.00008733 </v>
   <v>      -0.00301465       0.00233949       0.00016918 </v>
   <v>       0.00290481       0.00218294      -0.00032171 </v>
   <v>       0.00307535       0.00235389       0.00016921 </v>
   <v>      -0.00291461       0.00219787      -0.00032044 </v>
   <v>      -0.00017323       0.00021938      -0.00148236 </v>
   <v>      -0.00033947       0.00011089       0.00019871 </v>
   <v>      -0.00030119      -0.00003599       0.00149254 </v>
   <v>      -0.00028626      -0.00003281       0.00008399 </v>
   <v>       0.00027843       0.00026245       0.00021207 </v>
   <v>       0.00014650       0.00038284      -0.00005733 </v>
   <v>       0.00019978      -0.00035352       0.00010675 </v>
   <v>       0.00024277      -0.00038659       0.00020344 </v>
   <v>      -0.00022360      -0.00009829       0.00132082 </v>
   <v>      -0.00015131      -0.00006760      -0.00021258 </v>
   <v>      -0.00027807       0.00021310      -0.00162622 </v>
   <v>      -0.00017370       0.00003126      -0.00014015 </v>
   <v>       0.00026033       0.00045330      -0.00001183 </v>
   <v>       0.00024949       0.00026642      -0.00030386 </v>
   <v>       0.00024128      -0.00038018      -0.00014859 </v>
   <v>       0.00027103      -0.00028909      -0.00002173 </v>
   <v>      -0.00522196       0.00971978       0.00637731 </v>
   <v>      -0.00033039       0.00095202      -0.00047689 </v>
   <v>      -0.00082043      -0.00185372       0.00020727 </v>
   <v>       0.00014882      -0.00080664       0.00069281 </v>
   <v>      -0.00488478       0.00950338      -0.00537379 </v>
   <v>      -0.00014763       0.00092719       0.00046557 </v>
   <v>      -0.00073101      -0.00199277      -0.00023200 </v>
   <v>       0.00022616      -0.00080925      -0.00068205 </v>
   <v>       0.00508230       0.00967047      -0.00549140 </v>
   <v>       0.00017693       0.00090432       0.00057938 </v>
   <v>       0.00071491      -0.00199605      -0.00011393 </v>
   <v>      -0.00020781      -0.00080846      -0.00053627 </v>
   <v>       0.00031825       0.00095464      -0.00058576 </v>
   <v>       0.00501724       0.00955866       0.00601897 </v>
   <v>      -0.00016772      -0.00080354       0.00060341 </v>
   <v>       0.00084260      -0.00186035       0.00009006 </v>
  </varray>
  <varray name="stress" >
   <v>       2.13454663       0.00794971      -0.12887905 </v>
   <v>       0.00794992       1.87448782       0.00002879 </v>
   <v>      -0.12931329       0.00002740       0.50564220 </v>
  </varray>
  <energy>
   <i name="e_fr_energy">   -489.21511365 </i>
   <i name="e_wo_entrp">   -489.21511365 </i>
   <i name="e_0_energy">     -0.00000000 </i>
  </energy>
  <time name="totalsc"> 6419.34 6475.76</time>
  <eigenvalues>
   <array>
    <dimension dim="1">band</dimension>
    <dimension dim="2">kpoint</dimension>
    <dimension dim="3">spin</dimension>
    <field>eigene</field>
    <field>occ</field>
    <set>
     <set comment="spin 1">
      <set comment="kpoint 1">
       <r>  -51.0559    1.0000 </r>
       <r>  -51.0554    1.0000 </r>
       <r>  -51.0547    1.0000 </r>
       <r>  -51.0547    1.0000 </r>
       <r>  -51.0539    1.0000 </r>
       <r>  -51.0539    1.0000 </r>
       <r>  -51.0536    1.0000 </r>
       <r>  -51.0534    1.0000 </r>
       <r>  -51.0529    1.0000 </r>
       <r>  -51.0526    1.0000 </r>
       <r>  -51.0525    1.0000 </r>
       <r>  -51.0523    1.0000 </r>
       <r>  -51.0521    1.0000 </r>
       <r>  -51.0512    1.0000 </r>
       <r>  -51.0511    1.0000 </r>
       <r>  -51.0502    1.0000 </r>
       <r>  -51.0471    1.0000 </r>
       <r>  -51.0451    1.0000 </r>
       <r>  -51.0445    1.0000 </r>
       <r>  -51.0444    1.0000 </r>
       <r>  -51.0439    1.0000 </r>
       <r>  -51.0436    1.0000 </r>
       <r>  -51.0431    1.0000 </r>
       <r>  -51.0427    1.0000 </r>
       <r>  -51.0407    1.0000 </r>
       <r>  -51.0403    1.0000 </r>
       <r>  -51.0400    1.0000 </r>
       <r>  -51.0398    1.0000 </r>
       <r>  -51.0390    1.0000 </r>
       <r>  -51.0389    1.0000 </r>
       <r>  -51.0384    1.0000 </r>
       <r>  -51.0356    1.0000 </r>
       <r>  -49.7060    1.0000 </r>
       <r>  -49.7025    1.0000 </r>
       <r>  -49.7022    1.0000 </r>
       <r>  -49.7020    1.0000 </r>
       <r>  -49.7012    1.0000 </r>
       <r>  -49.7010    1.0000 </r>
       <r>  -49.7006    1.0000 </r>
       <r>  -49.6984    1.0000 </r>
       <r>  -49.6971    1.0000 </r>
       <r>  -49.6949    1.0000 </r>
       <r>  -49.6947    1.0000 </r>
       <r>  -49.6945    1.0000 </r>
       <r>  -49.6936    1.0000 </r>
       <r>  -49.6934    1.0000 </r>
       <r>  -49.6931    1.0000 </r>
       <r>  -49.6897    1.0000 </r>
       <r>  -49.5986    1.0000 </r>
       <r>  -49.5978    1.0000 </r>
       <r>  -49.5978    1.0000 </r>
       <r>  -49.5974    1.0000 </r>
       <r>  -49.5973    1.0000 </r>
       <r>  -49.5971    1.0000 </r>
       <r>  -49.5971    1.0000 </r>
       <r>  -49.5968    1.0000 </r>
       <r>  -49.5963    1.0000 </r>
       <r>  -49.5963    1.0000 </r>
       <r>  -49.5961    1.0000 </r>
       <r>  -49.5961    1.0000 </r>
       <r>  -49.5961    1.0000 </r>
       <r>  -49.5958    1.0000 </r>
       <r>  -49.5956    1.0000 </r>
       <r>  -49.5953    1.0000 </r>
       <r>  -49.5674    1.0000 </r>
       <r>  -49.5666    1.0000 </r>
       <r>  -49.5665    1.0000 </r>
       <r>  -49.5662    1.0000 </r>
       <r>  -49.5661    1.0000 </r>
       <r>  -49.5658    1.0000 </r>
       <r>  -49.5658    1.0000 </r>
       <r>  -49.5650    1.0000 </r>
       <r>  -49.5646    1.0000 </r>
       <r>  -49.5645    1.0000 </r>
       <r>  -49.5645    1.0000 </r>
       <r>  -49.5644    1.0000 </r>
       <r>  -49.5640    1.0000 </r>
       <r>  -49.5639    1.0000 </r>
       <r>  -49.5637    1.0000 </r>
       <r>  -49.5635    1.0000 </r>
       <r>  -49.5581    1.0000 </r>
       <r>  -49.5551    1.0000 </r>
       <r>  -49.5548    1.0000 </r>
       <r>  -49.5546    1.0000 </r>
       <r>  -49.5537    1.0000 </r>
       <r>  -49.5535    1.0000 </r>
       <r>  -49.5532    1.0000 </r>
       <r>  -49.5503    1.0000 </r>
       <r>  -49.5434    1.0000 </r>
       <r>  -49.5404    1.0000 </r>
       <r>  -49.5401    1.0000 </r>
       <r>  -49.5400    1.0000 </r>
       <r>  -49.5389    1.0000 </r>
       <r>  -49.5388    1.0000 </r>
       <r>  -49.5385    1.0000 </r>
       <r>  -49.5355    1.0000 </r>
       <r>  -39.8697    1.0000 </r>
       <r>  -39.8681    1.0000 </r>
       <r>  -39.8660    1.0000 </r>
       <r>  -39.8657    1.0000 </r>
       <r>  -39.8656    1.0000 </r>
       <r>  -39.8655    1.0000 </r>
       <r>  -39.8650    1.0000 </r>
       <r>  -39.8648    1.0000 </r>
       <r>  -39.8644    1.0000 </r>
       <r>  -39.8643    1.0000 </r>
       <r>  -39.8640    1.0000 </r>
       <r>  -39.8639    1.0000 </r>
       <r>  -39.8638    1.0000 </r>
       <r>  -39.8636    1.0000 </r>
       <r>  -39.8611    1.0000 </r>
       <r>  -39.8601    1.0000 </r>
       <r>  -13.2249    1.0000 </r>
       <r>  -13.2248    1.0000 </r>
       <r>  -13.2104    1.0000 </r>
       <r>  -13.1836    1.0000 </r>
       <r>  -13.1013    1.0000 </r>
       <r>  -13.0990    1.0000 </r>
       <r>  -13.0988    1.0000 </r>
       <r>  -13.0930    1.0000 </r>
       <r>  -13.0862    1.0000 </r>
       <r>  -13.0802    1.0000 </r>
       <r>  -13.0801    1.0000 </r>
       <r>  -13.0775    1.0000 </r>
       <r>  -12.9882    1.0000 </r>
       <r>  -12.9774    1.0000 </r>
       <r>  -12.9419    1.0000 </r>
       <r>  -12.9418    1.0000 </r>
       <r>   -7.6453    1.0000 </r>
       <r>   -7.4069    1.0000 </r>
       <r>   -7.3266    1.0000 </r>
       <r>   -7.3258    1.0000 </r>
       <r>   -7.3104    1.0000 </r>
       <r>   -7.3093    1.0000 </r>
       <r>   -7.3083    1.0000 </r>
       <r>   -7.3068    1.0000 </r>
       <r>   -7.1696    1.0000 </r>
       <r>   -7.1572    1.0000 </r>
       <r>   -7.1241    1.0000 </r>
       <r>   -7.1236    1.0000 </r>
       <r>   -7.0366    1.0000 </r>
       <r>   -7.0219    1.0000 </r>
       <r>   -7.0021    1.0000 </r>
       <r>   -7.0021    1.0000 </r>
       <r>   -6.9409    1.0000 </r>
       <r>   -6.9409    1.0000 </r>
       <r>   -6.8872    1.0000 </r>
       <r>   -6.8872    1.0000 </r>
       <r>   -6.8656    1.0000 </r>
       <r>   -6.8617    1.0000 </r>
       <r>   -6.8345    1.0000 </r>
       <r>   -6.8038    1.0000 </r>
       <r>   -1.9356    1.0000 </r>
       <r>   -1.9355    1.0000 </r>
       <r>   -1.9105    1.0000 </r>
       <r>   -1.8936    1.0000 </r>
       <r>   -1.6666    1.0000 </r>
       <r>   -1.6664    1.0000 </r>
       <r>   -1.6587    1.0000 </r>
       <r>   -1.6572    1.0000 </r>
       <r>   -1.5998    1.0000 </r>
       <r>   -1.5980    1.0000 </r>
       <r>   -1.5863    1.0000 </r>
       <r>   -1.5861    1.0000 </r>
       <r>   -1.2982    1.0000 </r>
       <r>   -1.1747    1.0000 </r>
       <r>   -1.1747    1.0000 </r>
       <r>   -1.1135    1.0000 </r>
       <r>   -1.1132    1.0000 </r>
       <r>   -1.1072    1.0000 </r>
       <r>   -1.0494    1.0000 </r>
       <r>   -0.9809    1.0000 </r>
       <r>   -0.9646    1.0000 </r>
       <r>   -0.9596    1.0000 </r>
       <r>   -0.9577    1.0000 </r>
       <r>   -0.9576    1.0000 </r>
       <r>   -0.9470    1.0000 </r>
       <r>   -0.9453    1.0000 </r>
       <r>   -0.9229    1.0000 </r>
       <r>   -0.8712    1.0000 </r>
       <r>   -0.8712    1.0000 </r>
       <r>   -0.8035    1.0000 </r>
       <r>   -0.8026    1.0000 </r>
       <r>   -0.8026    1.0000 </r>
       <r>   -0.7752    1.0000 </r>
       <r>   -0.7742    1.0000 </r>
       <r>   -0.7739    1.0000 </r>
       <r>   -0.7610    1.0000 </r>
       <r>   -0.7167    1.0000 </r>
       <r>   -0.7165    1.0000 </r>
       <r>   -0.7066    1.0000 </r>
       <r>   -0.7048    1.0000 </r>
       <r>   -0.6990    1.0000 </r>
       <r>   -0.6990    1.0000 </r>
       <r>   -0.6087    1.0000 </r>
       <r>   -0.6087    1.0000 </r>
       <r>   -0.5615    1.0000 </r>
       <r>   -0.5614    1.0000 </r>
       <r>   -0.5495    1.0000 </r>
       <r>   -0.5480    1.0000 </r>
       <r>   -0.4078    1.0000 </r>
       <r>   -0.4077    1.0000 </r>
       <r>   -0.3573    1.0000 </r>
       <r>   -0.3477    1.0000 </r>
       <r>   -0.3294    1.0000 </r>
       <r>   -0.3292    1.0000 </r>
       <r>   -0.2985    1.0000 </r>
       <r>   -0.2985    1.0000 </r>
       <r>   -0.2815    1.0000 </r>
       <r>   -0.2693    1.0000 </r>
       <r>   -0.2628    1.0000 </r>
       <r>   -0.2560    1.0000 </r>
       <r>   -0.2551    1.0000 </r>
       <r>   -0.2093    1.0000 </r>
       <r>   -0.2086    1.0000 </r>
       <r>   -0.1890    1.0000 </r>
       <r>   -0.1868    1.0000 </r>
       <r>   -0.1867    1.0000 </r>
       <r>   -0.1757    1.0000 </r>
       <r>   -0.1580    1.0000 </r>
       <r>   -0.1256    1.0000 </r>
       <r>   -0.1253    1.0000 </r>
       <r>   -0.1093    1.0000 </r>
       <r>   -0.0708    1.0000 </r>
       <r>   -0.0706    1.0000 </r>
       <r>   -0.0606    1.0000 </r>
       <r>   -0.0434    1.0000 </r>
       <r>   -0.0175    1.0000 </r>
       <r>   -0.0173    1.0000 </r>
       <r>   -0.0109    1.0000 </r>
       <r>    0.0017    1.0000 </r>
       <r>    0.0017    1.0000 </r>
       <r>    0.0462    1.0000 </r>
       <r>    0.0494    1.0000 </r>
       <r>    0.0495    1.0000 </r>
       <r>    0.0915    1.0000 </r>
       <r>    0.0933    1.0000 </r>
       <r>    0.1184    1.0000 </r>
       <r>    0.1186    1.0000 </r>
       <r>    0.1577    1.0000 </r>
       <r>    0.1627    1.0000 </r>
       <r>    0.1767    1.0000 </r>
       <r>    0.1793    1.0000 </r>
       <r>    0.1819    1.0000 </r>
       <r>    0.1821    1.0000 </r>
       <r>    0.1855    1.0000 </r>
       <r>    0.1892    1.0000 </r>
       <r>    0.1933    1.0000 </r>
       <r>    0.1941    1.0000 </r>
       <r>    0.2002    1.0000 </r>
       <r>    0.2009    1.0000 </r>
       <r>    0.2387    1.0000 </r>
       <r>    0.2510    1.0000 </r>
       <r>    0.2570    1.0000 </r>
       <r>    0.2570    1.0000 </r>
       <r>    0.2765    1.0000 </r>
       <r>    0.3373    1.0000 </r>
       <r>    0.3474    1.0000 </r>
       <r>    0.3586    1.0000 </r>
       <r>    0.3593    1.0000 </r>
       <r>    0.3602    1.0000 </r>
       <r>    0.3605    1.0000 </r>
       <r>    0.3881    1.0000 </r>
       <r>    0.4017    1.0000 </r>
       <r>    0.4525    1.0000 </r>
       <r>    0.4527    1.0000 </r>
       <r>    0.5786    1.0000 </r>
       <r>    0.5792    1.0000 </r>
       <r>    0.5844    1.0000 </r>
       <r>    0.6020    1.0000 </r>
       <r>    0.6021    1.0000 </r>
       <r>    0.6065    1.0000 </r>
       <r>    0.6080    1.0000 </r>
       <r>    0.6400    1.0000 </r>
       <r>    0.6509    1.0000 </r>
       <r>    0.6516    1.0000 </r>
       <r>    0.6621    1.0000 </r>
       <r>    0.6622    1.0000 </r>
       <r>    0.6656    1.0000 </r>
       <r>    0.6732    1.0000 </r>
       <r>    0.6747    1.0000 </r>
       <r>    0.6750    1.0000 </r>
       <r>    0.6966    1.0000 </r>
       <r>    0.7229    1.0000 </r>
       <r>    0.7833    1.0000 </r>
       <r>    0.8197    1.0000 </r>
       <r>    0.8296    1.0000 </r>
       <r>    0.8320    1.0000 </r>
       <r>    0.8322    1.0000 </r>
       <r>    0.8611    1.0000 </r>
       <r>    0.8614    1.0000 </r>
       <r>    0.9094    1.0000 </r>
       <r>    0.9404    1.0000 </r>
       <r>    0.9481    1.0000 </r>
       <r>    0.9483    1.0000 </r>
       <r>    0.9831    1.0000 </r>
       <r>    1.0258    1.0000 </r>
       <r>    1.0704    1.0000 </r>
       <r>    1.2694    1.0000 </r>
       <r>    1.2979    1.0000 </r>
       <r>    1.2985    1.0000 </r>
       <r>    1.3116    1.0000 </r>
       <r>    1.3330    1.0000 </r>
       <r>    1.3333    1.0000 </r>
       <r>    1.3378    1.0000 </r>
       <r>    1.3845    1.0000 </r>
       <r>    1.4051    1.0000 </r>
       <r>    1.4283    1.0000 </r>
       <r>    1.4670    1.0000 </r>
       <r>    1.4677    1.0000 </r>
       <r>    1.4682    1.0000 </r>
       <r>    1.4815    1.0000 </r>
       <r>    1.5108    1.0000 </r>
       <r>    1.5109    1.0000 </r>
       <r>    1.5404    1.0000 </r>
       <r>    1.5609    1.0000 </r>
       <r>    1.5770    1.0000 </r>
       <r>    1.6463    1.0000 </r>
       <r>    1.6554    1.0000 </r>
       <r>    1.7563    1.0000 </r>
       <r>    1.7563    1.0000 </r>
       <r>    1.7630    1.0000 </r>
       <r>    1.7783    1.0000 </r>
       <r>    1.8027    1.0000 </r>
       <r>    1.8031    1.0000 </r>
       <r>    1.8109    1.0000 </r>
       <r>    1.8232    1.0000 </r>
       <r>    1.8365    1.0000 </r>
       <r>    1.8368    1.0000 </r>
       <r>    1.8460    1.0000 </r>
       <r>    1.8468    1.0000 </r>
       <r>    1.8783    1.0000 </r>
       <r>    1.8904    1.0000 </r>
       <r>    1.9471    1.0000 </r>
       <r>    1.9931    1.0000 </r>
       <r>    1.9939    1.0000 </r>
       <r>    2.0064    1.0000 </r>
       <r>    2.0064    1.0000 </r>
       <r>    2.0100    1.0000 </r>
       <r>    2.0187    1.0000 </r>
       <r>    2.0202    1.0000 </r>
       <r>    2.0202    1.0000 </r>
       <r>    2.0395    1.0000 </r>
       <r>    2.0468    1.0000 </r>
       <r>    2.0468    1.0000 </r>
       <r>    2.0571    1.0000 </r>
       <r>    2.0688    1.0000 </r>
       <r>    2.0689    1.0000 </r>
       <r>    2.0915    1.0000 </r>
       <r>    2.1126    1.0000 </r>
       <r>    2.1907    1.0000 </r>
       <r>    2.1907    1.0000 </r>
       <r>    2.2467    1.0000 </r>
       <r>    2.2473    1.0000 </r>
       <r>    2.2708    1.0000 </r>
       <r>    2.2733    1.0000 </r>
       <r>    2.2846    1.0000 </r>
       <r>    2.4278    1.0000 </r>
       <r>    2.4664    1.0000 </r>
       <r>    2.4667    1.0000 </r>
       <r>    2.4776    1.0000 </r>
       <r>    2.5036    1.0000 </r>
       <r>    2.5275    1.0000 </r>
       <r>    2.5544    1.0000 </r>
       <r>    2.5924    1.0000 </r>
       <r>    2.6267    1.0000 </r>
       <r>    2.6268    1.0000 </r>
       <r>    2.6561    1.0000 </r>
       <r>    2.7385    1.0000 </r>
       <r>    2.7385    1.0000 </r>
       <r>    2.7610    1.0000 </r>
       <r>    2.7611    1.0000 </r>
       <r>    2.8339    1.0000 </r>
       <r>    2.8726    1.0000 </r>
       <r>    2.9265    1.0000 </r>
       <r>    2.9344    1.0000 </r>
       <r>    2.9344    1.0000 </r>
       <r>    2.9691    1.0000 </r>
       <r>    3.0274    1.0000 </r>
       <r>    3.0276    1.0000 </r>
       <r>    3.0616    1.0000 </r>
       <r>    3.0970    1.0000 </r>
       <r>    3.3075    1.0000 </r>
       <r>    3.3105    1.0000 </r>
       <r>    3.3481    1.0000 </r>
       <r>    3.3756    1.0000 </r>
       <r>    3.4216    1.0000 </r>
       <r>    3.4219    1.0000 </r>
       <r>    3.4405    1.0000 </r>
       <r>    3.4578    1.0000 </r>
       <r>    3.4593    1.0000 </r>
       <r>    3.5316    1.0000 </r>
       <r>    3.7479    1.0000 </r>
       <r>    3.8082    1.0000 </r>
       <r>    3.8091    1.0000 </r>
       <r>    3.8152    1.0000 </r>
       <r>    3.8153    1.0000 </r>
       <r>    3.8821    1.0000 </r>
       <r>    3.8830    1.0000 </r>
       <r>    3.9325    1.0000 </r>
       <r>    3.9355    1.0000 </r>
       <r>    3.9403    1.0000 </r>
       <r>    3.9410    1.0000 </r>
       <r>    4.0383    1.0000 </r>
       <r>    4.0392    1.0000 </r>
       <r>    4.0703    1.0000 </r>
       <r>    4.1385    1.0000 </r>
       <r>    4.1491    1.0000 </r>
       <r>    4.1512    1.0000 </r>
       <r>    4.3146    1.0000 </r>
       <r>    4.3179    1.0000 </r>
       <r>    4.3379    1.0000 </r>
       <r>    4.3581    1.0000 </r>
       <r>    4.3589    1.0000 </r>
       <r>    4.4288    1.0000 </r>
       <r>    4.4444    1.0000 </r>
       <r>    4.4460    1.0000 </r>
       <r>    4.4540    1.0000 </r>
       <r>    4.4562    1.0000 </r>
       <r>    4.4568    1.0000 </r>
       <r>    4.6364    1.0000 </r>
       <r>    4.6366    1.0000 </r>
       <r>    4.7324    1.0000 </r>
       <r>    4.7327    1.0000 </r>
       <r>    4.7635    1.0000 </r>
       <r>    4.7646    1.0000 </r>
       <r>    4.7693    1.0000 </r>
       <r>    4.7696    1.0000 </r>
       <r>    4.8102    1.0000 </r>
       <r>    4.8532    1.0000 </r>
       <r>    4.8534    1.0000 </r>
       <r>    4.8571    1.0000 </r>
       <r>    7.3436    0.0000 </r>
       <r>    8.1284    0.0000 </r>
       <r>    8.4449    0.0000 </r>
       <r>    8.6423    0.0000 </r>
       <r>    8.6428    0.0000 </r>
       <r>    8.8581    0.0000 </r>
       <r>    9.0844    0.0000 </r>
       <r>    9.0847    0.0000 </r>
       <r>    9.2611    0.0000 </r>
       <r>    9.2733    0.0000 </r>
       <r>    9.2889    0.0000 </r>
       <r>    9.2894    0.0000 </r>
       <r>    9.7266    0.0000 </r>
       <r>    9.7714    0.0000 </r>
       <r>    9.7726    0.0000 </r>
       <r>    9.7900    0.0000 </r>
       <r>    9.8532    0.0000 </r>
       <r>    9.8560    0.0000 </r>
       <r>    9.8590    0.0000 </r>
       <r>    9.8789    0.0000 </r>
       <r>    9.8894    0.0000 </r>
       <r>   10.0604    0.0000 </r>
       <r>   10.0827    0.0000 </r>
       <r>   10.1361    0.0000 </r>
       <r>   10.1364    0.0000 </r>
       <r>   10.3056    0.0000 </r>
       <r>   10.3065    0.0000 </r>
       <r>   10.4166    0.0000 </r>
       <r>   10.5268    0.0000 </r>
       <r>   10.5695    0.0000 </r>
       <r>   10.5714    0.0000 </r>
       <r>   10.5735    0.0000 </r>
       <r>   10.5784    0.0000 </r>
       <r>   10.5789    0.0000 </r>
       <r>   10.6757    0.0000 </r>
       <r>   10.9759    0.0000 </r>
       <r>   11.0182    0.0000 </r>
       <r>   11.0195    0.0000 </r>
       <r>   11.0407    0.0000 </r>
       <r>   11.0407    0.0000 </r>
       <r>   11.0776    0.0000 </r>
       <r>   11.1285    0.0000 </r>
       <r>   11.1782    0.0000 </r>
       <r>   11.1887    0.0000 </r>
       <r>   11.2280    0.0000 </r>
       <r>   11.2493    0.0000 </r>
       <r>   11.2495    0.0000 </r>
       <r>   11.2904    0.0000 </r>
       <r>   11.3065    0.0000 </r>
       <r>   11.4170    0.0000 </r>
       <r>   11.4181    0.0000 </r>
       <r>   11.4588    0.0000 </r>
       <r>   11.5211    0.0000 </r>
       <r>   11.5212    0.0000 </r>
       <r>   11.5306    0.0000 </r>
       <r>   11.5769    0.0000 </r>
       <r>   11.6796    0.0000 </r>
       <r>   11.6805    0.0000 </r>
       <r>   11.7964    0.0000 </r>
       <r>   11.7982    0.0000 </r>
       <r>   11.8156    0.0000 </r>
       <r>   11.8157    0.0000 </r>
       <r>   11.8823    0.0000 </r>
       <r>   11.9414    0.0000 </r>
       <r>   11.9755    0.0000 </r>
       <r>   11.9774    0.0000 </r>
       <r>   11.9820    0.0000 </r>
       <r>   12.0273    0.0000 </r>
       <r>   12.0290    0.0000 </r>
       <r>   12.0579    0.0000 </r>
       <r>   12.1616    0.0000 </r>
       <r>   12.2426    0.0000 </r>
       <r>   12.2571    0.0000 </r>
       <r>   12.2574    0.0000 </r>
       <r>   12.3144    0.0000 </r>
       <r>   12.3170    0.0000 </r>
       <r>   12.3215    0.0000 </r>
       <r>   12.3478    0.0000 </r>
       <r>   12.4618    0.0000 </r>
       <r>   12.4798    0.0000 </r>
       <r>   12.5163    0.0000 </r>
       <r>   12.5174    0.0000 </r>
       <r>   12.6141    0.0000 </r>
       <r>   12.6143    0.0000 </r>
       <r>   12.6603    0.0000 </r>
       <r>   12.6628    0.0000 </r>
       <r>   12.6638    0.0000 </r>
       <r>   12.6901    0.0000 </r>
       <r>   12.7477    0.0000 </r>
       <r>   12.8313    0.0000 </r>
       <r>   12.8717    0.0000 </r>
       <r>   12.8727    0.0000 </r>
       <r>   12.8738    0.0000 </r>
       <r>   13.1200    0.0000 </r>
       <r>   13.1205    0.0000 </r>
       <r>   13.2008    0.0000 </r>
       <r>   13.3801    0.0000 </r>
       <r>   13.4104    0.0000 </r>
       <r>   13.4113    0.0000 </r>
       <r>   13.4326    0.0000 </r>
       <r>   13.4373    0.0000 </r>
       <r>   13.4524    0.0000 </r>
       <r>   13.4905    0.0000 </r>
       <r>   13.5096    0.0000 </r>
       <r>   13.5450    0.0000 </r>
       <r>   13.5475    0.0000 </r>
      </set>
      <set comment="kpoint 2">
       <r>  -51.0558    1.0000 </r>
       <r>  -51.0553    1.0000 </r>
       <r>  -51.0547    1.0000 </r>
       <r>  -51.0546    1.0000 </r>
       <r>  -51.0542    1.0000 </r>
       <r>  -51.0541    1.0000 </r>
       <r>  -51.0537    1.0000 </r>
       <r>  -51.0534    1.0000 </r>
       <r>  -51.0529    1.0000 </r>
       <r>  -51.0526    1.0000 </r>
       <r>  -51.0521    1.0000 </r>
       <r>  -51.0519    1.0000 </r>
       <r>  -51.0518    1.0000 </r>
       <r>  -51.0514    1.0000 </r>
       <r>  -51.0511    1.0000 </r>
       <r>  -51.0505    1.0000 </r>
       <r>  -51.0470    1.0000 </r>
       <r>  -51.0451    1.0000 </r>
       <r>  -51.0445    1.0000 </r>
       <r>  -51.0444    1.0000 </r>
       <r>  -51.0439    1.0000 </r>
       <r>  -51.0436    1.0000 </r>
       <r>  -51.0431    1.0000 </r>
       <r>  -51.0427    1.0000 </r>
       <r>  -51.0407    1.0000 </r>
       <r>  -51.0403    1.0000 </r>
       <r>  -51.0400    1.0000 </r>
       <r>  -51.0397    1.0000 </r>
       <r>  -51.0390    1.0000 </r>
       <r>  -51.0389    1.0000 </r>
       <r>  -51.0384    1.0000 </r>
       <r>  -51.0356    1.0000 </r>
       <r>  -49.7060    1.0000 </r>
       <r>  -49.7025    1.0000 </r>
       <r>  -49.7022    1.0000 </r>
       <r>  -49.7020    1.0000 </r>
       <r>  -49.7012    1.0000 </r>
       <r>  -49.7010    1.0000 </r>
       <r>  -49.7006    1.0000 </r>
       <r>  -49.6984    1.0000 </r>
       <r>  -49.6971    1.0000 </r>
       <r>  -49.6949    1.0000 </r>
       <r>  -49.6947    1.0000 </r>
       <r>  -49.6945    1.0000 </r>
       <r>  -49.6936    1.0000 </r>
       <r>  -49.6934    1.0000 </r>
       <r>  -49.6931    1.0000 </r>
       <r>  -49.6897    1.0000 </r>
       <r>  -49.5985    1.0000 </r>
       <r>  -49.5981    1.0000 </r>
       <r>  -49.5975    1.0000 </r>
       <r>  -49.5974    1.0000 </r>
       <r>  -49.5973    1.0000 </r>
       <r>  -49.5972    1.0000 </r>
       <r>  -49.5969    1.0000 </r>
       <r>  -49.5967    1.0000 </r>
       <r>  -49.5963    1.0000 </r>
       <r>  -49.5963    1.0000 </r>
       <r>  -49.5962    1.0000 </r>
       <r>  -49.5962    1.0000 </r>
       <r>  -49.5960    1.0000 </r>
       <r>  -49.5958    1.0000 </r>
       <r>  -49.5956    1.0000 </r>
       <r>  -49.5953    1.0000 </r>
       <r>  -49.5673    1.0000 </r>
       <r>  -49.5669    1.0000 </r>
       <r>  -49.5663    1.0000 </r>
       <r>  -49.5662    1.0000 </r>
       <r>  -49.5661    1.0000 </r>
       <r>  -49.5659    1.0000 </r>
       <r>  -49.5655    1.0000 </r>
       <r>  -49.5651    1.0000 </r>
       <r>  -49.5646    1.0000 </r>
       <r>  -49.5645    1.0000 </r>
       <r>  -49.5645    1.0000 </r>
       <r>  -49.5644    1.0000 </r>
       <r>  -49.5640    1.0000 </r>
       <r>  -49.5639    1.0000 </r>
       <r>  -49.5637    1.0000 </r>
       <r>  -49.5635    1.0000 </r>
       <r>  -49.5581    1.0000 </r>
       <r>  -49.5551    1.0000 </r>
       <r>  -49.5548    1.0000 </r>
       <r>  -49.5546    1.0000 </r>
       <r>  -49.5537    1.0000 </r>
       <r>  -49.5535    1.0000 </r>
       <r>  -49.5532    1.0000 </r>
       <r>  -49.5503    1.0000 </r>
       <r>  -49.5434    1.0000 </r>
       <r>  -49.5404    1.0000 </r>
       <r>  -49.5401    1.0000 </r>
       <r>  -49.5400    1.0000 </r>
       <r>  -49.5389    1.0000 </r>
       <r>  -49.5388    1.0000 </r>
       <r>  -49.5385    1.0000 </r>
       <r>  -49.5355    1.0000 </r>
       <r>  -39.8697    1.0000 </r>
       <r>  -39.8681    1.0000 </r>
       <r>  -39.8660    1.0000 </r>
       <r>  -39.8657    1.0000 </r>
       <r>  -39.8656    1.0000 </r>
       <r>  -39.8655    1.0000 </r>
       <r>  -39.8650    1.0000 </r>
       <r>  -39.8648    1.0000 </r>
       <r>  -39.8644    1.0000 </r>
       <r>  -39.8643    1.0000 </r>
       <r>  -39.8640    1.0000 </r>
       <r>  -39.8639    1.0000 </r>
       <r>  -39.8638    1.0000 </r>
       <r>  -39.8636    1.0000 </r>
       <r>  -39.8611    1.0000 </r>
       <r>  -39.8601    1.0000 </r>
       <r>  -13.2075    1.0000 </r>
       <r>  -13.2074    1.0000 </r>
       <r>  -13.1951    1.0000 </r>
       <r>  -13.1702    1.0000 </r>
       <r>  -13.1591    1.0000 </r>
[...]
       <r>   -49.2827     0.0000     0.0000 </r>
       <r>   -49.0419     0.0000     0.0000 </r>
       <r>   -48.8010     0.0000     0.0000 </r>
       <r>   -48.5602     0.0000     0.0000 </r>
       <r>   -48.3194     0.0000     0.0000 </r>
       <r>   -48.0786     0.0000     0.0000 </r>
       <r>   -47.8378     0.0000     0.0000 </r>
       <r>   -47.5970     0.0000     0.0000 </r>
       <r>   -47.3562     0.0000     0.0000 </r>
       <r>   -47.1154     0.0000     0.0000 </r>
       <r>   -46.8746     0.0000     0.0000 </r>
       <r>   -46.6338     0.0000     0.0000 </r>
       <r>   -46.3930     0.3872     0.0932 </r>
       <r>   -46.1522   132.4574    31.9900 </r>
       <r>   -45.9114    60.8644    46.6466 </r>
       <r>   -45.6705   204.9495    96.0000 </r>
       <r>   -45.4297     0.0000    96.0000 </r>
       <r>   -45.1889     0.0000    96.0000 </r>
       <r>   -44.9481     0.0000    96.0000 </r>
       <r>   -44.7073     0.0000    96.0000 </r>
       <r>   -44.4665     0.0000    96.0000 </r>
       <r>   -44.2257     0.0000    96.0000 </r>
       <r>   -43.9849     0.0000    96.0000 </r>
       <r>   -43.7441     0.0000    96.0000 </r>
       <r>   -43.5033     0.0000    96.0000 </r>
       <r>   -43.2625     0.0000    96.0000 </r>
       <r>   -43.0217     0.0000    96.0000 </r>
       <r>   -42.7809     0.0000    96.0000 </r>
       <r>   -42.5400     0.0000    96.0000 </r>
       <r>   -42.2992     0.0000    96.0000 </r>
       <r>   -42.0584     0.0000    96.0000 </r>
       <r>   -41.8176     0.0000    96.0000 </r>
       <r>   -41.5768     0.0000    96.0000 </r>
       <r>   -41.3360     0.0000    96.0000 </r>
       <r>   -41.0952     0.0000    96.0000 </r>
       <r>   -40.8544     0.0000    96.0000 </r>
       <r>   -40.6136     0.0000    96.0000 </r>
       <r>   -40.3728     0.0000    96.0000 </r>
       <r>   -40.1320     0.0000    96.0000 </r>
       <r>   -39.8912    13.9792    99.3663 </r>
       <r>   -39.6504    52.4639   112.0000 </r>
       <r>   -39.4095     0.0000   112.0000 </r>
       <r>   -39.1687     0.0000   112.0000 </r>
       <r>   -38.9279     0.0000   112.0000 </r>
       <r>   -38.6871     0.0000   112.0000 </r>
       <r>   -38.4463     0.0000   112.0000 </r>
       <r>   -38.2055     0.0000   112.0000 </r>
       <r>   -37.9647     0.0000   112.0000 </r>
       <r>   -37.7239     0.0000   112.0000 </r>
       <r>   -37.4831     0.0000   112.0000 </r>
       <r>   -37.2423     0.0000   112.0000 </r>
       <r>   -37.0015     0.0000   112.0000 </r>
       <r>   -36.7607     0.0000   112.0000 </r>
       <r>   -36.5199     0.0000   112.0000 </r>
       <r>   -36.2790     0.0000   112.0000 </r>
       <r>   -36.0382     0.0000   112.0000 </r>
       <r>   -35.7974     0.0000   112.0000 </r>
       <r>   -35.5566     0.0000   112.0000 </r>
       <r>   -35.3158     0.0000   112.0000 </r>
       <r>   -35.0750     0.0000   112.0000 </r>
       <r>   -34.8342     0.0000   112.0000 </r>
       <r>   -34.5934     0.0000   112.0000 </r>
       <r>   -34.3526     0.0000   112.0000 </r>
       <r>   -34.1118     0.0000   112.0000 </r>
       <r>   -33.8710     0.0000   112.0000 </r>
       <r>   -33.6302     0.0000   112.0000 </r>
       <r>   -33.3894     0.0000   112.0000 </r>
       <r>   -33.1486     0.0000   112.0000 </r>
       <r>   -32.9077     0.0000   112.0000 </r>
       <r>   -32.6669     0.0000   112.0000 </r>
       <r>   -32.4261     0.0000   112.0000 </r>
       <r>   -32.1853     0.0000   112.0000 </r>
       <r>   -31.9445     0.0000   112.0000 </r>
       <r>   -31.7037     0.0000   112.0000 </r>
       <r>   -31.4629     0.0000   112.0000 </r>
       <r>   -31.2221     0.0000   112.0000 </r>
       <r>   -30.9813     0.0000   112.0000 </r>
       <r>   -30.7405     0.0000   112.0000 </r>
       <r>   -30.4997     0.0000   112.0000 </r>
       <r>   -30.2589     0.0000   112.0000 </r>
       <r>   -30.0181     0.0000   112.0000 </r>
       <r>   -29.7772     0.0000   112.0000 </r>
       <r>   -29.5364     0.0000   112.0000 </r>
       <r>   -29.2956     0.0000   112.0000 </r>
       <r>   -29.0548     0.0000   112.0000 </r>
       <r>   -28.8140     0.0000   112.0000 </r>
       <r>   -28.5732     0.0000   112.0000 </r>
       <r>   -28.3324     0.0000   112.0000 </r>
       <r>   -28.0916     0.0000   112.0000 </r>
       <r>   -27.8508     0.0000   112.0000 </r>
       <r>   -27.6100     0.0000   112.0000 </r>
       <r>   -27.3692     0.0000   112.0000 </r>
       <r>   -27.1284     0.0000   112.0000 </r>
       <r>   -26.8876     0.0000   112.0000 </r>
       <r>   -26.6467     0.0000   112.0000 </r>
       <r>   -26.4059     0.0000   112.0000 </r>
       <r>   -26.1651     0.0000   112.0000 </r>
       <r>   -25.9243     0.0000   112.0000 </r>
       <r>   -25.6835     0.0000   112.0000 </r>
       <r>   -25.4427     0.0000   112.0000 </r>
       <r>   -25.2019     0.0000   112.0000 </r>
       <r>   -24.9611     0.0000   112.0000 </r>
       <r>   -24.7203     0.0000   112.0000 </r>
       <r>   -24.4795     0.0000   112.0000 </r>
       <r>   -24.2387     0.0000   112.0000 </r>
       <r>   -23.9979     0.0000   112.0000 </r>
       <r>   -23.7571     0.0000   112.0000 </r>
       <r>   -23.5162     0.0000   112.0000 </r>
       <r>   -23.2754     0.0000   112.0000 </r>
       <r>   -23.0346     0.0000   112.0000 </r>
       <r>   -22.7938     0.0000   112.0000 </r>
       <r>   -22.5530     0.0000   112.0000 </r>
       <r>   -22.3122     0.0000   112.0000 </r>
       <r>   -22.0714     0.0000   112.0000 </r>
       <r>   -21.8306     0.0000   112.0000 </r>
       <r>   -21.5898     0.0000   112.0000 </r>
       <r>   -21.3490     0.0000   112.0000 </r>
       <r>   -21.1082     0.0000   112.0000 </r>
       <r>   -20.8674     0.0000   112.0000 </r>
       <r>   -20.6266     0.0000   112.0000 </r>
       <r>   -20.3858     0.0000   112.0000 </r>
       <r>   -20.1449     0.0000   112.0000 </r>
       <r>   -19.9041     0.0000   112.0000 </r>
       <r>   -19.6633     0.0000   112.0000 </r>
       <r>   -19.4225     0.0000   112.0000 </r>
       <r>   -19.1817     0.0000   112.0000 </r>
       <r>   -18.9409     0.0000   112.0000 </r>
       <r>   -18.7001     0.0000   112.0000 </r>
       <r>   -18.4593     0.0000   112.0000 </r>
       <r>   -18.2185     0.0000   112.0000 </r>
       <r>   -17.9777     0.0000   112.0000 </r>
       <r>   -17.7369     0.0000   112.0000 </r>
       <r>   -17.4961     0.0000   112.0000 </r>
       <r>   -17.2553     0.0000   112.0000 </r>
       <r>   -17.0144     0.0000   112.0000 </r>
       <r>   -16.7736     0.0000   112.0000 </r>
       <r>   -16.5328     0.0000   112.0000 </r>
       <r>   -16.2920     0.0000   112.0000 </r>
       <r>   -16.0512     0.0000   112.0000 </r>
       <r>   -15.8104     0.0000   112.0000 </r>
       <r>   -15.5696     0.0000   112.0000 </r>
       <r>   -15.3288     0.0000   112.0000 </r>
       <r>   -15.0880     0.0000   112.0000 </r>
       <r>   -14.8472     0.0000   112.0000 </r>
       <r>   -14.6064     0.0000   112.0000 </r>
       <r>   -14.3656     0.0000   112.0000 </r>
       <r>   -14.1248     0.0000   112.0000 </r>
       <r>   -13.8839     0.0000   112.0000 </r>
       <r>   -13.6431     0.0000   112.0000 </r>
       <r>   -13.4023     0.0000   112.0000 </r>
       <r>   -13.1615     0.0000   112.0000 </r>
       <r>   -12.9207     0.0069   112.0017 </r>
       <r>   -12.6799    42.0109   122.1182 </r>
       <r>   -12.4391    24.4253   128.0000 </r>
       <r>   -12.1983     0.0000   128.0000 </r>
       <r>   -11.9575     0.0000   128.0000 </r>
       <r>   -11.7167     0.0000   128.0000 </r>
       <r>   -11.4759     0.0000   128.0000 </r>
       <r>   -11.2351     0.0000   128.0000 </r>
       <r>   -10.9943     0.0000   128.0000 </r>
       <r>   -10.7534     0.0000   128.0000 </r>
       <r>   -10.5126     0.0000   128.0000 </r>
       <r>   -10.2718     0.0000   128.0000 </r>
       <r>   -10.0310     0.0000   128.0000 </r>
       <r>    -9.7902     0.0000   128.0000 </r>
       <r>    -9.5494     0.0000   128.0000 </r>
       <r>    -9.3086     0.0000   128.0000 </r>
       <r>    -9.0678     0.0000   128.0000 </r>
       <r>    -8.8270     0.0000   128.0000 </r>
       <r>    -8.5862     0.0000   128.0000 </r>
       <r>    -8.3454     0.0000   128.0000 </r>
       <r>    -8.1046     0.0000   128.0000 </r>
       <r>    -7.8638     0.0000   128.0000 </r>
       <r>    -7.6229     0.0000   128.0000 </r>
       <r>    -7.3821     0.4733   128.1140 </r>
       <r>    -7.1413    13.6665   131.4050 </r>
       <r>    -6.9005    29.4958   138.5078 </r>
       <r>    -6.6597    25.8988   144.7444 </r>
       <r>    -6.4189    30.0668   151.9847 </r>
       <r>    -6.1781     0.0635   152.0000 </r>
       <r>    -5.9373     0.0000   152.0000 </r>
       <r>    -5.6965     0.0000   152.0000 </r>
       <r>    -5.4557     0.0000   152.0000 </r>
       <r>    -5.2149     0.0000   152.0000 </r>
       <r>    -4.9741     0.0000   152.0000 </r>
       <r>    -4.7333     0.0000   152.0000 </r>
       <r>    -4.4925     0.0000   152.0000 </r>
       <r>    -4.2516     0.0000   152.0000 </r>
       <r>    -4.0108     0.0000   152.0000 </r>
       <r>    -3.7700     0.0000   152.0000 </r>
       <r>    -3.5292     0.0000   152.0000 </r>
       <r>    -3.2884     0.0000   152.0000 </r>
       <r>    -3.0476     0.0000   152.0000 </r>
       <r>    -2.8068     0.0000   152.0000 </r>
       <r>    -2.5660     0.0000   152.0000 </r>
       <r>    -2.3252     0.0000   152.0000 </r>
       <r>    -2.0844     0.0000   152.0000 </r>
       <r>    -1.8436     0.0000   152.0000 </r>
       <r>    -1.6028     0.0000   152.0000 </r>
       <r>    -1.3620     0.0000   152.0000 </r>
       <r>    -1.1211     0.0000   152.0000 </r>
       <r>    -0.8803     0.0000   152.0000 </r>
       <r>    -0.6395     0.0000   152.0000 </r>
       <r>    -0.3987     3.9749   152.9572 </r>
       <r>    -0.1579    20.3506   157.8578 </r>
       <r>     0.0829    12.2403   160.8053 </r>
       <r>     0.3237    18.4149   165.2398 </r>
       <r>     0.5645    29.4885   172.3408 </r>
       <r>     0.8053    39.1226   181.7619 </r>
       <r>     1.0461    37.3264   190.7503 </r>
       <r>     1.2869    31.3978   198.3112 </r>
       <r>     1.5277    20.6892   203.2933 </r>
       <r>     1.7685    29.0295   210.2838 </r>
       <r>     2.0094    36.6881   219.1186 </r>
       <r>     2.2502    27.9004   225.8372 </r>
       <r>     2.4910    26.9709   232.3320 </r>
       <r>     2.7318    30.4268   239.6590 </r>
       <r>     2.9726    44.2443   250.3134 </r>
       <r>     3.2134    45.5484   261.2818 </r>
       <r>     3.4542    32.5971   269.1314 </r>
       <r>     3.6950    12.6021   272.1661 </r>
       <r>     3.9358    17.3697   276.3488 </r>
       <r>     4.1766    52.7143   289.0429 </r>
       <r>     4.4174    44.5837   299.7790 </r>
       <r>     4.6582    17.5222   303.9984 </r>
       <r>     4.8990     0.0065   304.0000 </r>
       <r>     5.1399     0.0000   304.0000 </r>
       <r>     5.3807     0.0000   304.0000 </r>
       <r>     5.6215     0.0000   304.0000 </r>
       <r>     5.8623     0.0000   304.0000 </r>
       <r>     6.1031     0.0000   304.0000 </r>
       <r>     6.3439     0.3779   304.0910 </r>
       <r>     6.5847     4.1881   305.0995 </r>
       <r>     6.8255     7.7784   306.9726 </r>
       <r>     7.0663    18.9599   311.5383 </r>
       <r>     7.3071    43.9524   322.1224 </r>
       <r>     7.5479    53.1306   334.9166 </r>
       <r>     7.7887    63.4742   350.2017 </r>
       <r>     8.0295    65.6627   366.0137 </r>
       <r>     8.2704    69.9337   382.8543 </r>
       <r>     8.5112    59.5655   397.1981 </r>
       <r>     8.7520    58.5684   411.3018 </r>
       <r>     8.9928    48.2576   422.9226 </r>
       <r>     9.2336    30.2589   430.2092 </r>
       <r>     9.4744     9.0556   432.3899 </r>
       <r>     9.7152     2.9477   433.0997 </r>
       <r>     9.9560     8.3014   435.0988 </r>
       <r>    10.1968    18.5585   439.5678 </r>
       <r>    10.4376    17.9901   443.9000 </r>
       <r>    10.6784    17.1205   448.0227 </r>
       <r>    10.9192    27.5804   454.6643 </r>
       <r>    11.1600    18.9932   459.2380 </r>
       <r>    11.4008    23.9040   464.9942 </r>
       <r>    11.6417    15.0220   468.6117 </r>
       <r>    11.8825    13.7515   471.9231 </r>
       <r>    12.1233    15.9031   475.7527 </r>
       <r>    12.3641    36.4673   484.5343 </r>
       <r>    12.6049    32.7645   492.4242 </r>
       <r>    12.8457    30.1159   499.6764 </r>
       <r>    13.0865    20.2966   504.5640 </r>
       <r>    13.3273    22.0072   509.8635 </r>
       <r>    13.5681    27.2217   516.4187 </r>
       <r>    13.8089    23.7312   522.1333 </r>
       <r>    14.0497    26.3321   528.4743 </r>
       <r>    14.2905    19.3075   533.1237 </r>
       <r>    14.5313    16.8366   537.1781 </r>
       <r>    14.7722     3.4131   538.0000 </r>
       <r>    15.0130     0.0000   538.0000 </r>
       <r>    15.2538     0.0000   538.0000 </r>
       <r>    15.4946     0.0000   538.0000 </r>
       <r>    15.7354     0.0000   538.0000 </r>
       <r>    15.9762     0.0000   538.0000 </r>
       <r>    16.2170     0.0000   538.0000 </r>
       <r>    16.4578     0.0000   538.0000 </r>
       <r>    16.6986     0.0000   538.0000 </r>
       <r>    16.9394     0.0000   538.0000 </r>
       <r>    17.1802     0.0000   538.0000 </r>
       <r>    17.4210     0.0000   538.0000 </r>
       <r>    17.6618     0.0000   538.0000 </r>
       <r>    17.9027     0.0000   538.0000 </r>
      </set>
     </set>
    </array>
   </total>
  </dos>
 </calculation>
 <structure name="finalpos" >
  <crystal>
   <varray name="basis" >
    <v>      11.11223374       0.00000000      -0.00029034 </v>
    <v>       0.00000000      11.11745194       0.00000000 </v>
    <v>      -2.77510898       0.00000000      10.19872221 </v>
   </varray>
   <i name="volume">   1259.93837498 </i>
   <varray name="rec_basis" >
    <v>       0.08999155       0.00000000       0.02448702 </v>
    <v>       0.00000000       0.08994867       0.00000000 </v>
    <v>       0.00000256       0.00000000       0.09805220 </v>
   </varray>
  </crystal>
  <varray name="positions" >
   <v>       0.28894969       0.46933910       0.15583616 </v>
   <v>       0.78894969       0.46933910       0.15583616 </v>
   <v>       0.28894969       0.96933910       0.15583616 </v>
   <v>       0.78894969       0.96933910       0.15583616 </v>
   <v>       0.04646972       0.21934976       0.18586770 </v>
   <v>       0.54646972       0.21934976       0.18586770 </v>
   <v>       0.04646972       0.71934976       0.18586770 </v>
   <v>       0.54646972       0.71934976       0.18586770 </v>
   <v>       0.45353028       0.46934976       0.81413230 </v>
   <v>       0.95353028       0.46934976       0.81413230 </v>
   <v>       0.45353028       0.96934976       0.81413230 </v>
   <v>       0.95353028       0.96934976       0.81413230 </v>
   <v>       0.21105031       0.21933910       0.84416384 </v>
   <v>       0.71105031       0.21933910       0.84416384 </v>
   <v>       0.21105031       0.71933910       0.84416384 </v>
   <v>       0.71105031       0.71933910       0.84416384 </v>
   <v>       0.07654971       0.09530995       0.80250593 </v>
   <v>       0.57654971       0.09530995       0.80250593 </v>
   <v>       0.07654971       0.59530995       0.80250593 </v>
   <v>       0.57654971       0.59530995       0.80250593 </v>
   <v>       0.32470466       0.34338175       0.80250383 </v>
   <v>       0.82470466       0.34338175       0.80250383 </v>
   <v>       0.32470466       0.84338175       0.80250383 </v>
   <v>       0.82470466       0.84338175       0.80250383 </v>
   <v>       0.17529534       0.09338175       0.19749617 </v>
   <v>       0.67529534       0.09338175       0.19749617 </v>
   <v>       0.17529534       0.59338175       0.19749617 </v>
   <v>       0.67529534       0.59338175       0.19749617 </v>
   <v>       0.42345029       0.34530995       0.19749407 </v>
   <v>       0.92345029       0.34530995       0.19749407 </v>
   <v>       0.42345029       0.84530995       0.19749407 </v>
   <v>       0.92345029       0.84530995       0.19749407 </v>
   <v>       0.21868463       0.34523395       0.37102476 </v>
   <v>       0.71868463       0.34523395       0.37102476 </v>
   <v>       0.21868463       0.84523395       0.37102476 </v>
   <v>       0.71868463       0.84523395       0.37102476 </v>
   <v>       0.46681660       0.09344897       0.37102399 </v>
   <v>       0.96681660       0.09344897       0.37102399 </v>
   <v>       0.46681660       0.59344897       0.37102399 </v>
   <v>       0.96681660       0.59344897       0.37102399 </v>
   <v>       0.03318340       0.34344897       0.62897601 </v>
   <v>       0.53318340       0.34344897       0.62897601 </v>
   <v>       0.03318340       0.84344897       0.62897601 </v>
   <v>       0.53318340       0.84344897       0.62897601 </v>
   <v>       0.28131537       0.09523395       0.62897524 </v>
   <v>       0.78131537       0.09523395       0.62897524 </v>
   <v>       0.28131537       0.59523395       0.62897524 </v>
   <v>       0.78131537       0.59523395       0.62897524 </v>
   <v>       0.12439279       0.34524255       0.00000412 </v>
   <v>       0.62439279       0.34434306       0.00000412 </v>
   <v>       0.12439279       0.84434306       0.00000412 </v>
   <v>       0.62439279       0.84434306       0.00000412 </v>
   <v>       0.37560721       0.09434306       0.99999588 </v>
   <v>       0.87560721       0.09434306       0.99999588 </v>
   <v>       0.37560721       0.59434306       0.99999588 </v>
   <v>       0.87560721       0.59434306       0.99999588 </v>
   <v>       0.03824426       0.10634799       0.60632306 </v>
   <v>       0.53824426       0.10634799       0.60632306 </v>
   <v>       0.03824426       0.60634799       0.60632306 </v>
   <v>       0.53824426       0.60634799       0.60632306 </v>
   <v>       0.26492712       0.33232651       0.60632763 </v>
   <v>       0.76492712       0.33232651       0.60632763 </v>
   <v>       0.26492712       0.83232651       0.60632763 </v>
   <v>       0.76492712       0.83232651       0.60632763 </v>
   <v>       0.23507288       0.08232651       0.39367237 </v>
   <v>       0.73507288       0.08232651       0.39367237 </v>
   <v>       0.23507288       0.58232651       0.39367237 </v>
   <v>       0.73507288       0.58232651       0.39367237 </v>
   <v>       0.46175574       0.35634799       0.39367694 </v>
   <v>       0.96175574       0.35634799       0.39367694 </v>
   <v>       0.46175574       0.85634799       0.39367694 </v>
   <v>       0.96175574       0.85634799       0.39367694 </v>
   <v>       0.03848398       0.46936404       0.15397331 </v>
   <v>       0.53848398       0.46936404       0.15397331 </v>
   <v>       0.03848398       0.96936404       0.15397331 </v>
   <v>       0.53848398       0.96936404       0.15397331 </v>
   <v>       0.28861657       0.21935690       0.15447525 </v>
   <v>       0.78861657       0.21935690       0.15447525 </v>
   <v>       0.28861657       0.71935690       0.15447525 </v>
   <v>       0.78861657       0.71935690       0.15447525 </v>
   <v>       0.21138343       0.46935690       0.84552475 </v>
   <v>       0.71138343       0.46935690       0.84552475 </v>
   <v>       0.21138343       0.96935690       0.84552475 </v>
   <v>       0.71138343       0.96935690       0.84552475 </v>
   <v>       0.46151602       0.21936404       0.84602669 </v>
   <v>       0.96151602       0.21936404       0.84602669 </v>
   <v>       0.46151602       0.71936404       0.84602669 </v>
   <v>       0.96151602       0.71936404       0.84602669 </v>
  </varray>
 </structure>
</modeling>
