 144 144   0   0
  0.1325381E+02  0.1546422E-08  0.1214491E-08  0.1054520E-08  0.5000000E-15
  1.000000000000000E-004
  CAR 
 unknown system                          
     17.00844355    -54.87125268  301      5.08839392      1.00000000
    -54.871  0.0000E+00  0.0000E+00  0.0000E+00  0.0000E+00
    -54.632  0.0000E+00  0.0000E+00  0.0000E+00  0.0000E+00
    -54.392  0.0000E+00  0.0000E+00  0.0000E+00  0.0000E+00
    -54.152  0.0000E+00  0.0000E+00  0.0000E+00  0.0000E+00
    -53.913  0.0000E+00  0.0000E+00  0.0000E+00  0.0000E+00
    -53.673  0.0000E+00  0.0000E+00  0.0000E+00  0.0000E+00
    -53.434  0.0000E+00  0.0000E+00  0.0000E+00  0.0000E+00
    -53.194  0.0000E+00  0.0000E+00  0.0000E+00  0.0000E+00
    -52.954  0.0000E+00  0.0000E+00  0.0000E+00  0.0000E+00
    -52.715  0.0000E+00  0.0000E+00  0.0000E+00  0.0000E+00
    -52.475  0.0000E+00  0.0000E+00  0.0000E+00  0.0000E+00
    -52.236  0.0000E+00  0.0000E+00  0.0000E+00  0.0000E+00
    -51.996  0.0000E+00  0.0000E+00  0.0000E+00  0.0000E+00
    -51.756  0.3429E-03  0.0000E+00  0.8216E-04  0.0000E+00
    -51.517  0.4983E+02  0.0000E+00  0.1194E+02  0.0000E+00
    -51.277  0.8610E+02  0.0000E+00  0.3257E+02  0.0000E+00
    -51.038  0.1432E+02  0.0000E+00  0.3600E+02  0.0000E+00
    -50.798  0.0000E+00  0.0000E+00  0.3600E+02  0.0000E+00
    -50.558  0.0000E+00  0.0000E+00  0.3600E+02  0.0000E+00
    -50.319  0.1238E-03  0.0000E+00  0.3600E+02  0.0000E+00
    -50.079  0.6706E+02  0.0000E+00  0.5207E+02  0.0000E+00
    -49.840  0.2081E+03  0.0000E+00  0.1019E+03  0.0000E+00
    -49.600  0.2534E+02  0.0000E+00  0.1080E+03  0.0000E+00
    -49.360  0.0000E+00  0.0000E+00  0.1080E+03  0.0000E+00
    -49.121  0.0000E+00  0.0000E+00  0.1080E+03  0.0000E+00
    -48.881  0.0000E+00  0.0000E+00  0.1080E+03  0.0000E+00
    -48.642  0.0000E+00  0.0000E+00  0.1080E+03  0.0000E+00
    -48.402  0.0000E+00  0.0000E+00  0.1080E+03  0.0000E+00
    -48.162  0.0000E+00  0.0000E+00  0.1080E+03  0.0000E+00
    -47.923  0.0000E+00  0.0000E+00  0.1080E+03  0.0000E+00
    -47.683  0.0000E+00  0.0000E+00  0.1080E+03  0.0000E+00
    -47.444  0.0000E+00  0.0000E+00  0.1080E+03  0.0000E+00
    -47.204  0.0000E+00  0.0000E+00  0.1080E+03  0.0000E+00
    -46.964  0.0000E+00  0.6398E-01  0.1080E+03  0.1533E-01
    -46.725  0.0000E+00  0.5092E+02  0.1080E+03  0.1222E+02
    -46.485  0.0000E+00  0.9534E+02  0.1080E+03  0.3506E+02
    -46.246  0.0000E+00  0.1459E+03  0.1080E+03  0.7002E+02
    -46.006  0.0000E+00  0.1585E+03  0.1080E+03  0.1080E+03
    -45.766  0.0000E+00  0.4880E-02  0.1080E+03  0.1080E+03
    -45.527  0.0000E+00  0.0000E+00  0.1080E+03  0.1080E+03
    -45.287  0.0000E+00  0.0000E+00  0.1080E+03  0.1080E+03
    -45.048  0.0000E+00  0.0000E+00  0.1080E+03  0.1080E+03
    -44.808  0.0000E+00  0.0000E+00  0.1080E+03  0.1080E+03
    -44.568  0.0000E+00  0.0000E+00  0.1080E+03  0.1080E+03
    -44.329  0.0000E+00  0.0000E+00  0.1080E+03  0.1080E+03
    -44.089  0.0000E+00  0.0000E+00  0.1080E+03  0.1080E+03
    -43.850  0.0000E+00  0.0000E+00  0.1080E+03  0.1080E+03
    -43.610  0.0000E+00  0.0000E+00  0.1080E+03  0.1080E+03
    -43.371  0.0000E+00  0.0000E+00  0.1080E+03  0.1080E+03
    -43.131  0.0000E+00  0.0000E+00  0.1080E+03  0.1080E+03
    -42.891  0.0000E+00  0.0000E+00  0.1080E+03  0.1080E+03
    -42.652  0.0000E+00  0.0000E+00  0.1080E+03  0.1080E+03
    -42.412  0.0000E+00  0.0000E+00  0.1080E+03  0.1080E+03
    -42.173  0.0000E+00  0.0000E+00  0.1080E+03  0.1080E+03
    -41.933  0.0000E+00  0.0000E+00  0.1080E+03  0.1080E+03
    -41.693  0.0000E+00  0.0000E+00  0.1080E+03  0.1080E+03
    -41.454  0.0000E+00  0.0000E+00  0.1080E+03  0.1080E+03
    -41.214  0.0000E+00  0.0000E+00  0.1080E+03  0.1080E+03
    -40.975  0.0000E+00  0.0000E+00  0.1080E+03  0.1080E+03
    -40.735  0.1745E-08  0.5738E-09  0.1080E+03  0.1080E+03
    -40.495  0.2991E+02  0.2667E+02  0.1152E+03  0.1144E+03
    -40.256  0.4605E+02  0.4972E+02  0.1262E+03  0.1263E+03
    -40.016  0.1001E+03  0.1000E+03  0.1502E+03  0.1503E+03
    -39.777  0.2430E+02  0.2394E+02  0.1560E+03  0.1560E+03
    -39.537  0.0000E+00  0.0000E+00  0.1560E+03  0.1560E+03
    -39.297  0.0000E+00  0.0000E+00  0.1560E+03  0.1560E+03
    -39.058  0.0000E+00  0.0000E+00  0.1560E+03  0.1560E+03
    -38.818  0.0000E+00  0.0000E+00  0.1560E+03  0.1560E+03
    -38.579  0.0000E+00  0.0000E+00  0.1560E+03  0.1560E+03
    -38.339  0.0000E+00  0.0000E+00  0.1560E+03  0.1560E+03
    -38.099  0.0000E+00  0.0000E+00  0.1560E+03  0.1560E+03
    -37.860  0.0000E+00  0.0000E+00  0.1560E+03  0.1560E+03
    -37.620  0.0000E+00  0.0000E+00  0.1560E+03  0.1560E+03
    -37.381  0.0000E+00  0.0000E+00  0.1560E+03  0.1560E+03
    -37.141  0.0000E+00  0.0000E+00  0.1560E+03  0.1560E+03
    -36.901  0.0000E+00  0.0000E+00  0.1560E+03  0.1560E+03
    -36.662  0.0000E+00  0.0000E+00  0.1560E+03  0.1560E+03
    -36.422  0.0000E+00  0.0000E+00  0.1560E+03  0.1560E+03
    -36.183  0.0000E+00  0.0000E+00  0.1560E+03  0.1560E+03
    -35.943  0.0000E+00  0.0000E+00  0.1560E+03  0.1560E+03
    -35.703  0.0000E+00  0.0000E+00  0.1560E+03  0.1560E+03
    -35.464  0.0000E+00  0.0000E+00  0.1560E+03  0.1560E+03
    -35.224  0.0000E+00  0.0000E+00  0.1560E+03  0.1560E+03
    -34.985  0.0000E+00  0.0000E+00  0.1560E+03  0.1560E+03
    -34.745  0.0000E+00  0.0000E+00  0.1560E+03  0.1560E+03
    -34.505  0.0000E+00  0.0000E+00  0.1560E+03  0.1560E+03
    -34.266  0.0000E+00  0.0000E+00  0.1560E+03  0.1560E+03
    -34.026  0.0000E+00  0.0000E+00  0.1560E+03  0.1560E+03
    -33.787  0.0000E+00  0.0000E+00  0.1560E+03  0.1560E+03
    -33.547  0.0000E+00  0.0000E+00  0.1560E+03  0.1560E+03
    -33.307  0.0000E+00  0.0000E+00  0.1560E+03  0.1560E+03
    -33.068  0.0000E+00  0.0000E+00  0.1560E+03  0.1560E+03
    -32.828  0.0000E+00  0.0000E+00  0.1560E+03  0.1560E+03
    -32.589  0.0000E+00  0.0000E+00  0.1560E+03  0.1560E+03
    -32.349  0.0000E+00  0.0000E+00  0.1560E+03  0.1560E+03
    -32.109  0.0000E+00  0.0000E+00  0.1560E+03  0.1560E+03
    -31.870  0.0000E+00  0.0000E+00  0.1560E+03  0.1560E+03
    -31.630  0.0000E+00  0.0000E+00  0.1560E+03  0.1560E+03
    -31.391  0.0000E+00  0.0000E+00  0.1560E+03  0.1560E+03
    -31.151  0.0000E+00  0.0000E+00  0.1560E+03  0.1560E+03
    -30.911  0.0000E+00  0.0000E+00  0.1560E+03  0.1560E+03
    -30.672  0.0000E+00  0.0000E+00  0.1560E+03  0.1560E+03
    -30.432  0.0000E+00  0.0000E+00  0.1560E+03  0.1560E+03
    -30.193  0.0000E+00  0.0000E+00  0.1560E+03  0.1560E+03
    -29.953  0.0000E+00  0.0000E+00  0.1560E+03  0.1560E+03
    -29.713  0.0000E+00  0.0000E+00  0.1560E+03  0.1560E+03
    -29.474  0.0000E+00  0.0000E+00  0.1560E+03  0.1560E+03
    -29.234  0.0000E+00  0.0000E+00  0.1560E+03  0.1560E+03
    -28.995  0.0000E+00  0.0000E+00  0.1560E+03  0.1560E+03
    -28.755  0.0000E+00  0.0000E+00  0.1560E+03  0.1560E+03
    -28.515  0.0000E+00  0.0000E+00  0.1560E+03  0.1560E+03
    -28.276  0.0000E+00  0.0000E+00  0.1560E+03  0.1560E+03
    -28.036  0.0000E+00  0.0000E+00  0.1560E+03  0.1560E+03
    -27.797  0.0000E+00  0.0000E+00  0.1560E+03  0.1560E+03
    -27.557  0.0000E+00  0.0000E+00  0.1560E+03  0.1560E+03
    -27.317  0.0000E+00  0.0000E+00  0.1560E+03  0.1560E+03
    -27.078  0.0000E+00  0.0000E+00  0.1560E+03  0.1560E+03
    -26.838  0.0000E+00  0.0000E+00  0.1560E+03  0.1560E+03
    -26.599  0.0000E+00  0.0000E+00  0.1560E+03  0.1560E+03
    -26.359  0.0000E+00  0.0000E+00  0.1560E+03  0.1560E+03
    -26.119  0.0000E+00  0.0000E+00  0.1560E+03  0.1560E+03
    -25.880  0.0000E+00  0.0000E+00  0.1560E+03  0.1560E+03
    -25.640  0.0000E+00  0.0000E+00  0.1560E+03  0.1560E+03
    -25.401  0.0000E+00  0.0000E+00  0.1560E+03  0.1560E+03
    -25.161  0.0000E+00  0.0000E+00  0.1560E+03  0.1560E+03
    -24.921  0.0000E+00  0.0000E+00  0.1560E+03  0.1560E+03
    -24.682  0.0000E+00  0.0000E+00  0.1560E+03  0.1560E+03
    -24.442  0.0000E+00  0.0000E+00  0.1560E+03  0.1560E+03
    -24.203  0.0000E+00  0.0000E+00  0.1560E+03  0.1560E+03
    -23.963  0.0000E+00  0.0000E+00  0.1560E+03  0.1560E+03
    -23.723  0.0000E+00  0.0000E+00  0.1560E+03  0.1560E+03
    -23.484  0.0000E+00  0.0000E+00  0.1560E+03  0.1560E+03
    -23.244  0.0000E+00  0.0000E+00  0.1560E+03  0.1560E+03
    -23.005  0.0000E+00  0.0000E+00  0.1560E+03  0.1560E+03
    -22.765  0.0000E+00  0.0000E+00  0.1560E+03  0.1560E+03
    -22.525  0.0000E+00  0.0000E+00  0.1560E+03  0.1560E+03
    -22.286  0.0000E+00  0.0000E+00  0.1560E+03  0.1560E+03
    -22.046  0.0000E+00  0.0000E+00  0.1560E+03  0.1560E+03
    -21.807  0.0000E+00  0.0000E+00  0.1560E+03  0.1560E+03
    -21.567  0.0000E+00  0.0000E+00  0.1560E+03  0.1560E+03
    -21.327  0.0000E+00  0.0000E+00  0.1560E+03  0.1560E+03
    -21.088  0.0000E+00  0.0000E+00  0.1560E+03  0.1560E+03
    -20.848  0.0000E+00  0.0000E+00  0.1560E+03  0.1560E+03
    -20.609  0.0000E+00  0.0000E+00  0.1560E+03  0.1560E+03
    -20.369  0.0000E+00  0.0000E+00  0.1560E+03  0.1560E+03
    -20.129  0.0000E+00  0.0000E+00  0.1560E+03  0.1560E+03
    -19.890  0.0000E+00  0.0000E+00  0.1560E+03  0.1560E+03
    -19.650  0.0000E+00  0.0000E+00  0.1560E+03  0.1560E+03
    -19.411  0.0000E+00  0.0000E+00  0.1560E+03  0.1560E+03
    -19.171  0.0000E+00  0.0000E+00  0.1560E+03  0.1560E+03
    -18.931  0.0000E+00  0.0000E+00  0.1560E+03  0.1560E+03
    -18.692  0.0000E+00  0.0000E+00  0.1560E+03  0.1560E+03
    -18.452  0.0000E+00  0.0000E+00  0.1560E+03  0.1560E+03
    -18.213  0.0000E+00  0.0000E+00  0.1560E+03  0.1560E+03
    -17.973  0.0000E+00  0.0000E+00  0.1560E+03  0.1560E+03
    -17.733  0.0000E+00  0.0000E+00  0.1560E+03  0.1560E+03
    -17.494  0.0000E+00  0.0000E+00  0.1560E+03  0.1560E+03
    -17.254  0.0000E+00  0.0000E+00  0.1560E+03  0.1560E+03
    -17.015  0.0000E+00  0.0000E+00  0.1560E+03  0.1560E+03
    -16.775  0.0000E+00  0.0000E+00  0.1560E+03  0.1560E+03
    -16.535  0.0000E+00  0.0000E+00  0.1560E+03  0.1560E+03
    -16.296  0.0000E+00  0.0000E+00  0.1560E+03  0.1560E+03
    -16.056  0.0000E+00  0.0000E+00  0.1560E+03  0.1560E+03
    -15.817  0.0000E+00  0.0000E+00  0.1560E+03  0.1560E+03
    -15.577  0.0000E+00  0.0000E+00  0.1560E+03  0.1560E+03
    -15.337  0.0000E+00  0.0000E+00  0.1560E+03  0.1560E+03
    -15.098  0.0000E+00  0.0000E+00  0.1560E+03  0.1560E+03
    -14.858  0.0000E+00  0.0000E+00  0.1560E+03  0.1560E+03
    -14.619  0.0000E+00  0.0000E+00  0.1560E+03  0.1560E+03
    -14.379  0.0000E+00  0.0000E+00  0.1560E+03  0.1560E+03
    -14.139  0.0000E+00  0.0000E+00  0.1560E+03  0.1560E+03
    -13.900  0.1195E-02  0.0000E+00  0.1560E+03  0.1560E+03
    -13.660  0.2213E+02  0.5275E-13  0.1613E+03  0.1560E+03
    -13.421  0.2776E+02  0.1762E+01  0.1680E+03  0.1564E+03
    -13.181  0.8756E+01  0.4445E+02  0.1701E+03  0.1671E+03
    -12.941  0.3149E+02  0.4545E+01  0.1776E+03  0.1682E+03
    -12.702  0.1003E+02  0.4191E+02  0.1800E+03  0.1782E+03
    -12.462  0.0000E+00  0.7502E+01  0.1800E+03  0.1800E+03
    -12.223  0.0000E+00  0.0000E+00  0.1800E+03  0.1800E+03
    -11.983  0.0000E+00  0.0000E+00  0.1800E+03  0.1800E+03
    -11.743  0.0000E+00  0.0000E+00  0.1800E+03  0.1800E+03
    -11.504  0.0000E+00  0.0000E+00  0.1800E+03  0.1800E+03
    -11.264  0.0000E+00  0.0000E+00  0.1800E+03  0.1800E+03
    -11.025  0.0000E+00  0.0000E+00  0.1800E+03  0.1800E+03
    -10.785  0.0000E+00  0.0000E+00  0.1800E+03  0.1800E+03
    -10.545  0.0000E+00  0.0000E+00  0.1800E+03  0.1800E+03
    -10.306  0.0000E+00  0.0000E+00  0.1800E+03  0.1800E+03
    -10.066  0.0000E+00  0.0000E+00  0.1800E+03  0.1800E+03
     -9.827  0.0000E+00  0.0000E+00  0.1800E+03  0.1800E+03
     -9.587  0.0000E+00  0.0000E+00  0.1800E+03  0.1800E+03
     -9.347  0.0000E+00  0.0000E+00  0.1800E+03  0.1800E+03
     -9.108  0.0000E+00  0.0000E+00  0.1800E+03  0.1800E+03
     -8.868  0.0000E+00  0.0000E+00  0.1800E+03  0.1800E+03
     -8.629  0.0000E+00  0.0000E+00  0.1800E+03  0.1800E+03
     -8.389  0.0000E+00  0.0000E+00  0.1800E+03  0.1800E+03
     -8.149  0.0000E+00  0.0000E+00  0.1800E+03  0.1800E+03
     -7.910  0.2232E-02  0.0000E+00  0.1800E+03  0.1800E+03
     -7.670  0.9393E+01  0.1676E-01  0.1823E+03  0.1800E+03
     -7.431  0.2308E+02  0.1197E+02  0.1878E+03  0.1829E+03
     -7.191  0.5571E+02  0.2853E+02  0.2011E+03  0.1897E+03
     -6.951  0.5805E+02  0.5989E+02  0.2150E+03  0.2041E+03
     -6.712  0.4016E+01  0.4650E+02  0.2160E+03  0.2152E+03
     -6.472  0.0000E+00  0.3347E+01  0.2160E+03  0.2160E+03
     -6.233  0.0000E+00  0.0000E+00  0.2160E+03  0.2160E+03
     -5.993  0.0000E+00  0.0000E+00  0.2160E+03  0.2160E+03
     -5.753  0.0000E+00  0.0000E+00  0.2160E+03  0.2160E+03
     -5.514  0.0000E+00  0.0000E+00  0.2160E+03  0.2160E+03
     -5.274  0.0000E+00  0.0000E+00  0.2160E+03  0.2160E+03
     -5.035  0.0000E+00  0.0000E+00  0.2160E+03  0.2160E+03
     -4.795  0.0000E+00  0.0000E+00  0.2160E+03  0.2160E+03
     -4.555  0.0000E+00  0.0000E+00  0.2160E+03  0.2160E+03
     -4.316  0.0000E+00  0.0000E+00  0.2160E+03  0.2160E+03
     -4.076  0.0000E+00  0.0000E+00  0.2160E+03  0.2160E+03
     -3.837  0.0000E+00  0.0000E+00  0.2160E+03  0.2160E+03
     -3.597  0.0000E+00  0.0000E+00  0.2160E+03  0.2160E+03
     -3.357  0.0000E+00  0.0000E+00  0.2160E+03  0.2160E+03
     -3.118  0.0000E+00  0.0000E+00  0.2160E+03  0.2160E+03
     -2.878  0.1550E-13  0.0000E+00  0.2160E+03  0.2160E+03
     -2.639  0.8303E+00  0.0000E+00  0.2162E+03  0.2160E+03
     -2.399  0.1030E+02  0.0000E+00  0.2187E+03  0.2160E+03
     -2.159  0.2041E+02  0.0000E+00  0.2236E+03  0.2160E+03
     -1.920  0.1927E+01  0.0000E+00  0.2240E+03  0.2160E+03
     -1.680  0.3456E+02  0.0000E+00  0.2323E+03  0.2160E+03
     -1.441  0.1948E+02  0.4119E-15  0.2370E+03  0.2160E+03
     -1.201  0.4416E+02  0.8550E-01  0.2475E+03  0.2160E+03
     -0.961  0.4960E+02  0.4411E+01  0.2594E+03  0.2171E+03
     -0.722  0.7501E+02  0.1406E+02  0.2774E+03  0.2204E+03
     -0.482  0.1032E+03  0.1529E+02  0.3021E+03  0.2241E+03
     -0.243  0.8547E+02  0.1955E+02  0.3226E+03  0.2288E+03
     -0.003  0.1105E+03  0.4129E+02  0.3491E+03  0.2387E+03
      0.237  0.6985E+02  0.3393E+02  0.3658E+03  0.2468E+03
      0.476  0.3828E+02  0.4212E+02  0.3750E+03  0.2569E+03
      0.716  0.4569E+02  0.3370E+02  0.3859E+03  0.2650E+03
      0.955  0.4869E+02  0.5285E+02  0.3976E+03  0.2776E+03
      1.195  0.5550E+02  0.6053E+02  0.4109E+03  0.2921E+03
      1.435  0.6423E+02  0.4444E+02  0.4263E+03  0.3028E+03
      1.674  0.1008E+03  0.4009E+02  0.4505E+03  0.3124E+03
      1.914  0.5258E+02  0.3845E+02  0.4631E+03  0.3216E+03
      2.153  0.3876E+02  0.3741E+02  0.4723E+03  0.3306E+03
      2.393  0.4652E+02  0.3828E+02  0.4835E+03  0.3397E+03
      2.633  0.4781E+02  0.4936E+02  0.4950E+03  0.3516E+03
      2.872  0.4355E+02  0.6290E+02  0.5054E+03  0.3666E+03
      3.112  0.4013E+02  0.5875E+02  0.5150E+03  0.3807E+03
      3.351  0.4743E+02  0.4805E+02  0.5264E+03  0.3922E+03
      3.591  0.5254E+02  0.2991E+02  0.5390E+03  0.3994E+03
      3.830  0.4542E+02  0.6122E+02  0.5498E+03  0.4141E+03
      4.070  0.3198E+02  0.7345E+02  0.5575E+03  0.4317E+03
      4.310  0.4243E+02  0.1381E+01  0.5677E+03  0.4320E+03
      4.549  0.2363E+02  0.0000E+00  0.5733E+03  0.4320E+03
      4.789  0.1024E+02  0.0000E+00  0.5758E+03  0.4320E+03
      5.028  0.9121E+00  0.0000E+00  0.5760E+03  0.4320E+03
      5.268  0.0000E+00  0.0000E+00  0.5760E+03  0.4320E+03
      5.508  0.0000E+00  0.0000E+00  0.5760E+03  0.4320E+03
      5.747  0.0000E+00  0.0000E+00  0.5760E+03  0.4320E+03
      5.987  0.0000E+00  0.4792E-11  0.5760E+03  0.4320E+03
      6.226  0.0000E+00  0.1434E+00  0.5760E+03  0.4320E+03
      6.466  0.0000E+00  0.8129E+01  0.5760E+03  0.4340E+03
      6.706  0.0000E+00  0.3023E+02  0.5760E+03  0.4412E+03
      6.945  0.6810E-12  0.4336E+02  0.5760E+03  0.4516E+03
      7.185  0.1062E+00  0.7314E+02  0.5760E+03  0.4691E+03
      7.424  0.1319E+00  0.8084E+02  0.5761E+03  0.4885E+03
      7.664  0.8910E+00  0.6539E+02  0.5763E+03  0.5042E+03
      7.904  0.3497E+01  0.8789E+02  0.5771E+03  0.5252E+03
      8.143  0.4267E+01  0.7134E+02  0.5781E+03  0.5423E+03
      8.383  0.7025E+01  0.5445E+02  0.5798E+03  0.5554E+03
      8.622  0.1636E+02  0.3719E+02  0.5837E+03  0.5643E+03
      8.862  0.2529E+02  0.3920E+02  0.5898E+03  0.5737E+03
      9.102  0.1924E+02  0.1940E+02  0.5944E+03  0.5783E+03
      9.341  0.2536E+02  0.1388E+02  0.6005E+03  0.5817E+03
      9.581  0.3123E+02  0.2059E+02  0.6080E+03  0.5866E+03
      9.820  0.2661E+02  0.2999E+02  0.6143E+03  0.5938E+03
     10.060  0.2966E+02  0.2655E+02  0.6214E+03  0.6001E+03
     10.300  0.2276E+02  0.3470E+02  0.6269E+03  0.6084E+03
     10.539  0.2042E+02  0.3547E+02  0.6318E+03  0.6169E+03
     10.779  0.2852E+02  0.2792E+02  0.6386E+03  0.6236E+03
     11.018  0.3896E+02  0.2248E+02  0.6480E+03  0.6290E+03
     11.258  0.3938E+02  0.2157E+02  0.6574E+03  0.6342E+03
     11.498  0.3729E+02  0.3230E+02  0.6663E+03  0.6419E+03
     11.737  0.4479E+02  0.3875E+02  0.6771E+03  0.6512E+03
     11.977  0.3855E+02  0.4257E+02  0.6863E+03  0.6614E+03
     12.216  0.3854E+02  0.5194E+02  0.6955E+03  0.6739E+03
     12.456  0.3989E+02  0.4683E+02  0.7051E+03  0.6851E+03
     12.696  0.3653E+02  0.3597E+02  0.7138E+03  0.6937E+03
     12.935  0.3440E+02  0.4126E+02  0.7221E+03  0.7036E+03
     13.175  0.2287E+02  0.3977E+02  0.7276E+03  0.7131E+03
     13.414  0.1819E+01  0.3420E+02  0.7280E+03  0.7213E+03
     13.654  0.0000E+00  0.2404E+02  0.7280E+03  0.7271E+03
     13.894  0.0000E+00  0.3896E+01  0.7280E+03  0.7280E+03
     14.133  0.0000E+00  0.3742E-05  0.7280E+03  0.7280E+03
     14.373  0.0000E+00  0.0000E+00  0.7280E+03  0.7280E+03
     14.612  0.0000E+00  0.0000E+00  0.7280E+03  0.7280E+03
     14.852  0.0000E+00  0.0000E+00  0.7280E+03  0.7280E+03
     15.092  0.0000E+00  0.0000E+00  0.7280E+03  0.7280E+03
     15.331  0.0000E+00  0.0000E+00  0.7280E+03  0.7280E+03
     15.571  0.0000E+00  0.0000E+00  0.7280E+03  0.7280E+03
     15.810  0.0000E+00  0.0000E+00  0.7280E+03  0.7280E+03
     16.050  0.0000E+00  0.0000E+00  0.7280E+03  0.7280E+03
     16.290  0.0000E+00  0.0000E+00  0.7280E+03  0.7280E+03
     16.529  0.0000E+00  0.0000E+00  0.7280E+03  0.7280E+03
     16.769  0.0000E+00  0.0000E+00  0.7280E+03  0.7280E+03
     17.008  0.0000E+00  0.0000E+00  0.7280E+03  0.7280E+03
