<?xml version="1.0" encoding="ISO-8859-1"?>
<modeling>
 <generator>
  <i name="program" type="string">vasp </i>
  <i name="version" type="string">5.4.4.18Apr17-6-g9f103f2a35  </i>
  <i name="subversion" type="string">(build Oct 25 2017 14:42:18) complex            parallel </i>
  <i name="platform" type="string">LinuxIFC </i>
  <i name="date" type="string">2021 04 18 </i>
  <i name="time" type="string">02:44:22 </i>
 </generator>
 <incar>
  <i type="string" name="PREC">accurate</i>
  <i type="string" name="ALGO"> normal</i>
  <i type="logical" name="ADDGRID"> T  </i>
  <i type="int" name="ISPIN">     2</i>
  <i type="int" name="ICHARG">     1</i>
  <i type="int" name="NELM">   200</i>
  <i type="int" name="NELMIN">     8</i>
  <i name="EDIFF">      0.00000100</i>
  <i type="int" name="ISYM">     0</i>
  <i name="ENCUT">    650.00000000</i>
  <v name="MAGMOM">      0.60000000      0.60000000      0.60000000      0.60000000      0.60000000      0.60000000      0.60000000      0.60000000      0.60000000      0.60000000      0.60000000      0.60000000      0.60000000      0.60000000      0.60000000      0.60000000      0.60000000      0.60000000      0.60000000      0.60000000
      0.60000000      0.60000000      0.60000000      0.60000000      0.60000000      0.60000000      0.60000000      0.60000000      0.60000000      0.60000000      0.60000000      0.60000000      0.60000000      0.60000000      0.60000000      0.60000000      0.60000000      0.60000000      0.60000000      0.60000000
      0.60000000      0.60000000      0.60000000      0.60000000      0.60000000      0.60000000      0.60000000      0.60000000      5.00000000      5.00000000      5.00000000      5.00000000      5.00000000      5.00000000      5.00000000      5.00000000      5.00000000      5.00000000      5.00000000      5.00000000
      5.00000000      5.00000000      5.00000000      5.00000000      5.00000000      5.00000000      5.00000000      5.00000000      5.00000000      5.00000000      5.00000000      5.00000000      5.00000000      5.00000000      5.00000000      5.00000000      5.00000000      5.00000000      5.00000000      5.00000000
      5.00000000      5.00000000      5.00000000      5.00000000      0.60000000      0.60000000      0.60000000      0.60000000      0.60000000      0.60000000      0.60000000      0.60000000      0.60000000      0.60000000      0.60000000      0.60000000      0.60000000      0.60000000      0.60000000      0.60000000
      0.60000000      0.60000000      0.60000000      0.60000000      0.60000000      0.60000000      0.60000000      0.60000000      0.60000000      0.60000000      0.60000000      0.60000000      0.60000000      0.60000000      0.60000000      0.60000000      0.60000000      0.60000000      0.60000000      0.60000000
      0.60000000      0.60000000      0.60000000      0.60000000      0.60000000      0.60000000      0.60000000      0.60000000      0.60000000      0.60000000      0.60000000      0.60000000      0.60000000      0.60000000      0.60000000      0.60000000      0.60000000      0.60000000      0.60000000      0.60000000
      0.60000000      0.60000000      0.60000000      0.60000000</v>
  <i type="logical" name="LREAL"> F  </i>
  <i type="int" name="ISMEAR">     0</i>
  <i name="SIGMA">      0.05000000</i>
  <i type="int" name="NWRITE">     1</i>
  <i type="int" name="LMAXMIX">     4</i>
  <i type="logical" name="LWAVE"> F  </i>
  <i type="logical" name="LASPH"> T  </i>
  <v type="int" name="KPOINT_BSE">    -1     0     0     0</v>
  <i type="int" name="NELM">   200</i>
  <i type="string" name="GGA"> pe</i>
  <i type="logical" name="LDAU"> T  </i>
  <v type="int" name="LDAUTYPE">     2</v>
  <v type="int" name="LDAUL">    -1     2    -1    -1</v>
  <v name="LDAUU">      0.00000000      4.00000000      0.00000000      0.00000000</v>
  <v name="LDAUJ">      0.00000000      0.00000000      0.00000000      0.00000000</v>
  <i type="logical" name="LASPH"> T  </i>
 </incar>
 <structure name="primitive_cell" >
  <crystal>
   <varray name="basis" >
    <v>      15.21162830       0.00516956      -2.78361592 </v>
    <v>      -0.40798665      11.93565774      -2.20735884 </v>
    <v>      -0.06175567      -0.11168197      10.54442638 </v>
   </varray>
   <i name="volume">   1908.54869108 </i>
   <varray name="rec_basis" >
    <v>       0.06581343       0.00232549       0.00041008 </v>
    <v>       0.00013433       0.08395174       0.00088997 </v>
    <v>       0.01740216       0.01818827       0.09513139 </v>
   </varray>
  </crystal>
  <varray name="positions" >
   <v>       0.47527516       0.00074367       0.00446200 </v>
   <v>      -0.47527003       0.03239991       0.19439947 </v>
   <v>       0.47618324      -0.03189981      -0.19139884 </v>
   <v>       0.37500000       0.16666667       0.00000000 </v>
   <v>       0.37500000      -0.16666667       0.00000000 </v>
   <v>       0.40535584       0.03794021       0.22764128 </v>
   <v>      -0.35733875       0.02567762       0.15406572 </v>
   <v>       0.47796480       0.13582521      -0.18504874 </v>
   <v>       0.47796480      -0.19750812      -0.18504874 </v>
   <v>       0.34464416      -0.03794021      -0.22764128 </v>
   <v>      -0.39266125      -0.02567762      -0.15406572 </v>
   <v>      -0.47447416       0.19979622       0.19877732 </v>
   <v>      -0.47447416      -0.13353711       0.19877732 </v>
   <v>      -0.37500000       0.16666667       0.00000000 </v>
   <v>      -0.37500000      -0.16666667       0.00000000 </v>
   <v>       0.27472484      -0.00074367      -0.00446200 </v>
   <v>       0.27381676       0.03189981       0.19139884 </v>
   <v>      -0.42788806       0.06536154       0.39216926 </v>
   <v>       0.22527003      -0.03239991      -0.19439947 </v>
   <v>       0.47527516      -0.33258966       0.00446200 </v>
   <v>       0.47527516       0.33407700       0.00446200 </v>
   <v>       0.46517249      -0.06641917      -0.39851502 </v>
   <v>       0.27203520       0.19750812       0.18504874 </v>
   <v>       0.27203520      -0.13582521       0.18504874 </v>
   <v>      -0.47527003       0.36573324       0.19439947 </v>
   <v>      -0.47527003      -0.30093342       0.19439947 </v>
   <v>       0.41542107       0.22793643       0.36761855 </v>
   <v>       0.41542107      -0.10539691       0.36761855 </v>
   <v>       0.22447416       0.13353711      -0.19877732 </v>
   <v>       0.22447416      -0.19979622      -0.19877732 </v>
   <v>       0.33457893       0.10539691      -0.36761855 </v>
   <v>       0.33457893      -0.22793643      -0.36761855 </v>
   <v>       0.47618324       0.30143353      -0.19139884 </v>
   <v>       0.47618324      -0.36523314      -0.19139884 </v>
   <v>      -0.22527516      -0.00074367      -0.00446200 </v>
   <v>      -0.22618324       0.03189981       0.19139884 </v>
   <v>      -0.27472997      -0.03239991      -0.19439947 </v>
   <v>      -0.32385262       0.22809805       0.36858830 </v>
   <v>      -0.32385262      -0.10523528       0.36858830 </v>
   <v>      -0.42614738       0.10523528      -0.36858830 </v>
   <v>      -0.42614738      -0.22809805      -0.36858830 </v>
   <v>       0.40535584       0.37127355       0.22764128 </v>
   <v>       0.40535584      -0.29539312       0.22764128 </v>
   <v>      -0.35733875       0.35901095       0.15406572 </v>
   <v>      -0.35733875      -0.30765571       0.15406572 </v>
   <v>       0.34464416       0.29539312      -0.22764128 </v>
   <v>       0.34464416      -0.37127355      -0.22764128 </v>
   <v>      -0.39266125       0.30765571      -0.15406572 </v>
   <v>      -0.39266125      -0.35901095      -0.15406572 </v>
   <v>      -0.22796480       0.19750812       0.18504874 </v>
   <v>      -0.22796480      -0.13582521       0.18504874 </v>
   <v>       0.27472484       0.33258966      -0.00446200 </v>
   <v>       0.27472484      -0.33407700      -0.00446200 </v>
   <v>      -0.27552584       0.13353711      -0.19877732 </v>
   <v>      -0.27552584      -0.19979622      -0.19877732 </v>
   <v>       0.28482751       0.06641917       0.39851502 </v>
   <v>       0.17788806      -0.06536154      -0.39216926 </v>
   <v>       0.10733875      -0.02567762      -0.15406572 </v>
   <v>      -0.32211194      -0.06536154      -0.39216926 </v>
   <v>       0.14266125       0.02567762       0.15406572 </v>
   <v>       0.27381676       0.36523314       0.19139884 </v>
   <v>       0.27381676      -0.30143353       0.19139884 </v>
   <v>      -0.21517249       0.06641917       0.39851502 </v>
   <v>      -0.42788806       0.39869487       0.39216926 </v>
   <v>      -0.42788806      -0.26797179       0.39216926 </v>
   <v>       0.22527003       0.30093342      -0.19439947 </v>
   <v>       0.22527003      -0.36573324      -0.19439947 </v>
   <v>       0.12500000       0.16666667       0.00000000 </v>
   <v>       0.12500000      -0.16666667       0.00000000 </v>
   <v>       0.46517249       0.26691416      -0.39851502 </v>
   <v>       0.46517249      -0.39975250      -0.39851502 </v>
   <v>      -0.22527516       0.33258966      -0.00446200 </v>
   <v>      -0.22527516      -0.33407700      -0.00446200 </v>
   <v>      -0.22618324       0.36523314       0.19139884 </v>
   <v>      -0.22618324      -0.30143353       0.19139884 </v>
   <v>      -0.27472997       0.30093342      -0.19439947 </v>
   <v>      -0.27472997      -0.36573324      -0.19439947 </v>
   <v>       0.37500000      -0.50000000       0.00000000 </v>
   <v>       0.47796480       0.46915854      -0.18504874 </v>
   <v>      -0.47447416      -0.46687045       0.19877732 </v>
   <v>      -0.37500000      -0.50000000       0.00000000 </v>
   <v>      -0.12500000       0.16666667       0.00000000 </v>
   <v>      -0.12500000      -0.16666667       0.00000000 </v>
   <v>      -0.15535584      -0.03794021      -0.22764128 </v>
   <v>      -0.09464416       0.03794021       0.22764128 </v>
   <v>       0.28482751      -0.26691416       0.39851502 </v>
   <v>      -0.32211194       0.26797179      -0.39216926 </v>
   <v>       0.28482751       0.39975250       0.39851502 </v>
   <v>       0.17614738       0.22809805       0.36858830 </v>
   <v>       0.17614738      -0.10523528       0.36858830 </v>
   <v>       0.17788806      -0.39869487      -0.39216926 </v>
   <v>       0.17788806       0.26797179      -0.39311756 </v>
   <v>       0.10733875       0.30765571      -0.15406572 </v>
   <v>       0.10733875      -0.35901095      -0.15406572 </v>
   <v>      -0.32211194      -0.39869487      -0.39216926 </v>
   <v>       0.14266125       0.35901095       0.15406572 </v>
   <v>       0.14266125      -0.30765571       0.15406572 </v>
   <v>       0.07385262       0.10523528      -0.36858830 </v>
   <v>       0.07385262      -0.22809805      -0.36858830 </v>
   <v>      -0.21517249       0.39975250       0.39851502 </v>
   <v>      -0.21517249      -0.26691416       0.39851502 </v>
   <v>       0.27203520      -0.46915854       0.18504874 </v>
   <v>       0.41542107      -0.43873024       0.36761855 </v>
   <v>       0.22447416       0.46687045      -0.19877732 </v>
   <v>       0.33457893       0.43873024      -0.36761855 </v>
   <v>      -0.08457893       0.22793643       0.36761855 </v>
   <v>      -0.08457893      -0.10539691       0.36761855 </v>
   <v>      -0.32385262      -0.43856862       0.36858830 </v>
   <v>      -0.42614738       0.43856862      -0.36858830 </v>
   <v>       0.02472997       0.03239991       0.19439947 </v>
   <v>      -0.02381676      -0.03189981      -0.19139884 </v>
   <v>      -0.16542107       0.10539691      -0.36761855 </v>
   <v>      -0.16542107      -0.22793643      -0.36761855 </v>
   <v>      -0.22796480      -0.46915854       0.18504874 </v>
   <v>      -0.27552584       0.46687045      -0.19877732 </v>
   <v>      -0.02472484       0.00074367       0.00446200 </v>
   <v>      -0.15535584       0.29539312      -0.22764128 </v>
   <v>      -0.15535584      -0.37127355      -0.22764128 </v>
   <v>      -0.09464416       0.37127355       0.22764128 </v>
   <v>      -0.09464416      -0.29539312       0.22764128 </v>
   <v>      -0.02203520       0.13582521      -0.18504874 </v>
   <v>      -0.02203520      -0.19750812      -0.18504874 </v>
   <v>       0.02552584       0.19979622       0.19877732 </v>
   <v>       0.02552584      -0.13353711       0.19877732 </v>
   <v>       0.07211194       0.06536154       0.39216926 </v>
   <v>       0.12500000      -0.50000000       0.00000000 </v>
   <v>      -0.03482751      -0.06641917      -0.39851502 </v>
   <v>       0.07211194      -0.26797179       0.39216926 </v>
   <v>       0.17614738      -0.43856862       0.36858830 </v>
   <v>       0.02472997       0.36573324       0.19439947 </v>
   <v>       0.02472997      -0.30093342       0.19439947 </v>
   <v>      -0.02381676       0.30143353      -0.19139884 </v>
   <v>      -0.02381676      -0.36523314      -0.19139884 </v>
   <v>      -0.12500000      -0.50000000       0.00000000 </v>
   <v>      -0.16542107       0.43873024      -0.36761855 </v>
   <v>      -0.02472484      -0.33258966       0.00446200 </v>
   <v>      -0.02472484       0.33407700       0.00446200 </v>
   <v>       0.07211194       0.39869487       0.39216926 </v>
   <v>       0.07385262       0.43856862      -0.36858830 </v>
   <v>      -0.03482751       0.26691416      -0.39851502 </v>
   <v>      -0.03482751      -0.39975250      -0.39851502 </v>
   <v>      -0.08457893      -0.43873024       0.36761855 </v>
   <v>      -0.02203520       0.46915854      -0.18504874 </v>
   <v>       0.02552584      -0.46687045       0.19877732 </v>
  </varray>
 </structure>
 <varray name="primitive_index" >
  <v type="int" >        1 </v>
  <v type="int" >      134 </v>
  <v type="int" >      131 </v>
  <v type="int" >       91 </v>
  <v type="int" >       95 </v>
  <v type="int" >       43 </v>
  <v type="int" >       38 </v>
  <v type="int" >       67 </v>
  <v type="int" >       71 </v>
  <v type="int" >       35 </v>
  <v type="int" >       30 </v>
  <v type="int" >       74 </v>
  <v type="int" >       78 </v>
  <v type="int" >       86 </v>
  <v type="int" >       90 </v>
  <v type="int" >       11 </v>
  <v type="int" >      139 </v>
  <v type="int" >       20 </v>
  <v type="int" >      125 </v>
  <v type="int" >        5 </v>
  <v type="int" >        3 </v>
  <v type="int" >       53 </v>
  <v type="int" >       79 </v>
  <v type="int" >       83 </v>
  <v type="int" >      136 </v>
  <v type="int" >      138 </v>
  <v type="int" >      103 </v>
  <v type="int" >      107 </v>
  <v type="int" >       61 </v>
  <v type="int" >       65 </v>
  <v type="int" >      115 </v>
  <v type="int" >      119 </v>
  <v type="int" >      127 </v>
  <v type="int" >      129 </v>
  <v type="int" >       12 </v>
  <v type="int" >      140 </v>
  <v type="int" >      126 </v>
  <v type="int" >       98 </v>
  <v type="int" >      102 </v>
  <v type="int" >      110 </v>
  <v type="int" >      114 </v>
  <v type="int" >       45 </v>
  <v type="int" >       47 </v>
  <v type="int" >       40 </v>
  <v type="int" >       42 </v>
  <v type="int" >       31 </v>
  <v type="int" >       33 </v>
  <v type="int" >       26 </v>
  <v type="int" >       28 </v>
  <v type="int" >       80 </v>
  <v type="int" >       84 </v>
  <v type="int" >        7 </v>
  <v type="int" >        9 </v>
  <v type="int" >       62 </v>
  <v type="int" >       66 </v>
  <v type="int" >       55 </v>
  <v type="int" >       17 </v>
  <v type="int" >       29 </v>
  <v type="int" >       18 </v>
  <v type="int" >       37 </v>
  <v type="int" >      141 </v>
  <v type="int" >      143 </v>
  <v type="int" >       56 </v>
  <v type="int" >       22 </v>
  <v type="int" >       24 </v>
  <v type="int" >      121 </v>
  <v type="int" >      123 </v>
  <v type="int" >       85 </v>
  <v type="int" >       89 </v>
  <v type="int" >       49 </v>
  <v type="int" >       51 </v>
  <v type="int" >        8 </v>
  <v type="int" >       10 </v>
  <v type="int" >      142 </v>
  <v type="int" >      144 </v>
  <v type="int" >      122 </v>
  <v type="int" >      124 </v>
  <v type="int" >       93 </v>
  <v type="int" >       69 </v>
  <v type="int" >       76 </v>
  <v type="int" >       88 </v>
  <v type="int" >       92 </v>
  <v type="int" >       96 </v>
  <v type="int" >       36 </v>
  <v type="int" >       44 </v>
  <v type="int" >       59 </v>
  <v type="int" >       14 </v>
  <v type="int" >       57 </v>
  <v type="int" >       97 </v>
  <v type="int" >      101 </v>
  <v type="int" >       15 </v>
  <v type="int" >       13 </v>
  <v type="int" >       25 </v>
  <v type="int" >       27 </v>
  <v type="int" >       16 </v>
  <v type="int" >       39 </v>
  <v type="int" >       41 </v>
  <v type="int" >      109 </v>
  <v type="int" >      113 </v>
  <v type="int" >       58 </v>
  <v type="int" >       60 </v>
  <v type="int" >       81 </v>
  <v type="int" >      105 </v>
  <v type="int" >       63 </v>
  <v type="int" >      117 </v>
  <v type="int" >      104 </v>
  <v type="int" >      108 </v>
  <v type="int" >      100 </v>
  <v type="int" >      112 </v>
  <v type="int" >      133 </v>
  <v type="int" >      132 </v>
  <v type="int" >      116 </v>
  <v type="int" >      120 </v>
  <v type="int" >       82 </v>
  <v type="int" >       64 </v>
  <v type="int" >        2 </v>
  <v type="int" >       32 </v>
  <v type="int" >       34 </v>
  <v type="int" >       46 </v>
  <v type="int" >       48 </v>
  <v type="int" >       68 </v>
  <v type="int" >       72 </v>
  <v type="int" >       73 </v>
  <v type="int" >       77 </v>
  <v type="int" >       19 </v>
  <v type="int" >       87 </v>
  <v type="int" >       54 </v>
  <v type="int" >       23 </v>
  <v type="int" >       99 </v>
  <v type="int" >      135 </v>
  <v type="int" >      137 </v>
  <v type="int" >      128 </v>
  <v type="int" >      130 </v>
  <v type="int" >       94 </v>
  <v type="int" >      118 </v>
  <v type="int" >        6 </v>
  <v type="int" >        4 </v>
  <v type="int" >       21 </v>
  <v type="int" >      111 </v>
  <v type="int" >       50 </v>
  <v type="int" >       52 </v>
  <v type="int" >      106 </v>
  <v type="int" >       70 </v>
  <v type="int" >       75 </v>
 </varray>
 <kpoints>
  <generation param="Gamma">
   <v type="int" name="divisions">       2        3        3 </v>
   <v name="usershift">      0.00000000       0.00000000       0.00000000 </v>
   <v name="genvec1">      0.50000000       0.00000000      -0.00000000 </v>
   <v name="genvec2">      0.00000000       0.33333333       0.00000000 </v>
   <v name="genvec3">      0.00000000       0.00000000       0.33333333 </v>
   <v name="shift">      0.00000000       0.00000000       0.00000000 </v>
  </generation>
  <varray name="kpointlist" >
   <v>       0.00000000       0.00000000       0.00000000 </v>
   <v>       0.50000000      -0.00000000       0.00000000 </v>
   <v>      -0.00000000       0.33333333      -0.00000000 </v>
   <v>       0.50000000       0.33333333      -0.00000000 </v>
   <v>      -0.00000000       0.00000000       0.33333333 </v>
   <v>       0.50000000       0.00000000       0.33333333 </v>
   <v>      -0.00000000       0.33333333       0.33333333 </v>
   <v>       0.50000000       0.33333333       0.33333333 </v>
   <v>      -0.00000000      -0.33333333       0.33333333 </v>
   <v>       0.50000000      -0.33333333       0.33333333 </v>
  </varray>
  <varray name="weights" >
   <v>       0.05555556 </v>
   <v>       0.05555556 </v>
   <v>       0.11111111 </v>
   <v>       0.11111111 </v>
   <v>       0.11111111 </v>
   <v>       0.11111111 </v>
   <v>       0.11111111 </v>
   <v>       0.11111111 </v>
   <v>       0.11111111 </v>
   <v>       0.11111111 </v>
  </varray>
 </kpoints>
 <parameters>
  <separator name="general" >
   <i type="string" name="SYSTEM">unknown system</i>
   <i type="logical" name="LCOMPAT"> F  </i>
  </separator>
  <separator name="electronic" >
   <i type="string" name="PREC">accura</i>
   <i name="ENMAX">    650.00000000</i>
   <i name="ENAUG">    628.94500000</i>
   <i name="EDIFF">      0.00000100</i>
   <i type="int" name="IALGO">    38</i>
   <i type="int" name="IWAVPR">    10</i>
   <i type="int" name="NBANDS">   728</i>
   <i name="NELECT">   1008.00000000</i>
   <i type="int" name="TURBO">     0</i>
   <i type="int" name="IRESTART">     0</i>
   <i type="int" name="NREBOOT">     0</i>
   <i type="int" name="NMIN">     0</i>
   <i name="EREF">      0.00000000</i>
   <separator name="electronic smearing" >
    <i type="int" name="ISMEAR">     0</i>
    <i name="SIGMA">      0.05000000</i>
    <i name="KSPACING">      0.50000000</i>
    <i type="logical" name="KGAMMA"> T  </i>
   </separator>
   <separator name="electronic projectors" >
    <i type="logical" name="LREAL"> F  </i>
    <v name="ROPT">      0.00000000      0.00000000      0.00000000      0.00000000</v>
    <i type="int" name="LMAXPAW">  -100</i>
    <i type="int" name="LMAXMIX">     4</i>
    <i type="logical" name="NLSPLINE"> F  </i>
   </separator>
   <separator name="electronic startup" >
    <i type="int" name="ISTART">     0</i>
    <i type="int" name="ICHARG">     1</i>
    <i type="int" name="INIWAV">     1</i>
   </separator>
   <separator name="electronic spin" >
    <i type="int" name="ISPIN">     2</i>
    <i type="logical" name="LNONCOLLINEAR"> F  </i>
    <v name="MAGMOM">      0.60000000      0.60000000      0.60000000      0.60000000      0.60000000      0.60000000      0.60000000      0.60000000      0.60000000      0.60000000      0.60000000      0.60000000      0.60000000      0.60000000      0.60000000      0.60000000      0.60000000      0.60000000      0.60000000      0.60000000
      0.60000000      0.60000000      0.60000000      0.60000000      0.60000000      0.60000000      0.60000000      0.60000000      0.60000000      0.60000000      0.60000000      0.60000000      0.60000000      0.60000000      0.60000000      0.60000000      0.60000000      0.60000000      0.60000000      0.60000000
      0.60000000      0.60000000      0.60000000      0.60000000      0.60000000      0.60000000      0.60000000      0.60000000      5.00000000      5.00000000      5.00000000      5.00000000      5.00000000      5.00000000      5.00000000      5.00000000      5.00000000      5.00000000      5.00000000      5.00000000
      5.00000000      5.00000000      5.00000000      5.00000000      5.00000000      5.00000000      5.00000000      5.00000000      5.00000000      5.00000000      5.00000000      5.00000000      5.00000000      5.00000000      5.00000000      5.00000000      5.00000000      5.00000000      5.00000000      5.00000000
      5.00000000      5.00000000      5.00000000      5.00000000      0.60000000      0.60000000      0.60000000      0.60000000      0.60000000      0.60000000      0.60000000      0.60000000      0.60000000      0.60000000      0.60000000      0.60000000      0.60000000      0.60000000      0.60000000      0.60000000
      0.60000000      0.60000000      0.60000000      0.60000000      0.60000000      0.60000000      0.60000000      0.60000000      0.60000000      0.60000000      0.60000000      0.60000000      0.60000000      0.60000000      0.60000000      0.60000000      0.60000000      0.60000000      0.60000000      0.60000000
      0.60000000      0.60000000      0.60000000      0.60000000      0.60000000      0.60000000      0.60000000      0.60000000      0.60000000      0.60000000      0.60000000      0.60000000      0.60000000      0.60000000      0.60000000      0.60000000      0.60000000      0.60000000      0.60000000      0.60000000
      0.60000000      0.60000000      0.60000000      0.60000000</v>
    <i name="NUPDOWN">     -1.00000000</i>
    <i type="logical" name="LSORBIT"> F  </i>
    <v name="SAXIS">      0.00000000      0.00000000      1.00000000</v>
    <i type="logical" name="LSPIRAL"> F  </i>
    <v name="QSPIRAL">      0.00000000      0.00000000      0.00000000</v>
    <i type="logical" name="LZEROZ"> F  </i>
   </separator>
   <separator name="electronic exchange-correlation" >
    <i type="logical" name="LASPH"> T  </i>
    <i type="logical" name="LMETAGGA"> F  </i>
   </separator>
   <separator name="electronic convergence" >
    <i type="int" name="NELM">   200</i>
    <i type="int" name="NELMDL">     0</i>
    <i type="int" name="NELMIN">     8</i>
    <i name="ENINI">    650.00000000</i>
    <separator name="electronic convergence detail" >
     <i type="logical" name="LDIAG"> T  </i>
     <i type="logical" name="LSUBROT"> F  </i>
     <i name="WEIMIN">      0.00000000</i>
     <i name="EBREAK">      0.00000000</i>
     <i name="DEPER">      0.30000000</i>
     <i type="int" name="NRMM">     4</i>
     <i name="TIME">      0.40000000</i>
    </separator>
   </separator>
   <separator name="electronic mixer" >
    <i name="AMIX">      0.40000000</i>
    <i name="BMIX">      1.00000000</i>
    <i name="AMIN">      0.10000000</i>
    <i name="AMIX_MAG">      1.60000000</i>
    <i name="BMIX_MAG">      1.00000000</i>
    <separator name="electronic mixer details" >
     <i type="int" name="IMIX">     4</i>
     <i type="logical" name="MIXFIRST"> F  </i>
     <i type="int" name="MAXMIX">   -45</i>
     <i name="WC">    100.00000000</i>
     <i type="int" name="INIMIX">     1</i>
     <i type="int" name="MIXPRE">     1</i>
     <i type="int" name="MREMOVE">     5</i>
    </separator>
   </separator>
   <separator name="electronic dipolcorrection" >
    <i type="logical" name="LDIPOL"> F  </i>
    <i type="logical" name="LMONO"> F  </i>
    <i type="int" name="IDIPOL">     0</i>
    <i name="EPSILON">      1.00000000</i>
    <v name="DIPOL">   -100.00000000   -100.00000000   -100.00000000</v>
    <i name="EFIELD">      0.00000000</i>
   </separator>
  </separator>
  <separator name="grids" >
   <i type="int" name="NGX">   140</i>
   <i type="int" name="NGY">   108</i>
   <i type="int" name="NGZ">    90</i>
   <i type="int" name="NGXF">   280</i>
   <i type="int" name="NGYF">   216</i>
   <i type="int" name="NGZF">   180</i>
   <i type="logical" name="ADDGRID"> T  </i>
  </separator>
  <separator name="ionic" >
   <i type="int" name="NSW">     0</i>
   <i type="int" name="IBRION">    -1</i>
   <i type="int" name="MDALGO">     0</i>
   <i type="int" name="ISIF">     2</i>
   <i name="PSTRESS">      0.00000000</i>
   <i name="EDIFFG">      0.00001000</i>
   <i type="int" name="NFREE">     0</i>
   <i name="POTIM">      0.50000000</i>
   <i name="SMASS">     -3.00000000</i>
   <i name="SCALEE">      1.00000000</i>
  </separator>
  <separator name="ionic md" >
   <i name="TEBEG">      0.00010000</i>
   <i name="TEEND">      0.00010000</i>
   <i type="int" name="NBLOCK">     1</i>
   <i type="int" name="KBLOCK">     1</i>
   <i type="int" name="NPACO">   256</i>
   <i name="APACO">     16.00000000</i>
  </separator>
  <separator name="symmetry" >
   <i type="int" name="ISYM">     0</i>
   <i name="SYMPREC">      0.00001000</i>
  </separator>
  <separator name="dos" >
   <i type="int" name="LORBIT">     0</i>
   <v name="RWIGS">     -1.00000000     -1.00000000     -1.00000000     -1.00000000</v>
   <i type="int" name="NEDOS">   301</i>
   <i name="EMIN">     10.00000000</i>
   <i name="EMAX">    -10.00000000</i>
   <i name="EFERMI">      0.00000000</i>
  </separator>
  <separator name="writing" >
   <i type="int" name="NWRITE">     1</i>
   <i type="logical" name="LWAVE"> F  </i>
   <i type="logical" name="LDOWNSAMPLE"> F  </i>
   <i type="logical" name="LCHARG"> T  </i>
   <i type="logical" name="LPARD"> F  </i>
   <i type="logical" name="LVTOT"> F  </i>
   <i type="logical" name="LVHAR"> F  </i>
   <i type="logical" name="LELF"> F  </i>
   <i type="logical" name="LOPTICS"> F  </i>
   <v name="STM">      0.00000000      0.00000000      0.00000000      0.00000000      0.00000000      0.00000000      0.00000000</v>
  </separator>
  <separator name="performance" >
   <i type="int" name="NPAR">     4</i>
   <i type="int" name="NSIM">     4</i>
   <i type="int" name="NBLK">    -1</i>
   <i type="logical" name="LPLANE"> T  </i>
   <i type="logical" name="LSCALAPACK"> T  </i>
   <i type="logical" name="LSCAAWARE"> F  </i>
   <i type="logical" name="LSCALU"> F  </i>
   <i type="logical" name="LASYNC"> F  </i>
   <i type="logical" name="LORBITALREAL"> F  </i>
  </separator>
  <separator name="miscellaneous" >
   <i type="int" name="IDIOT">     3</i>
   <i type="int" name="ISPECIAL">     0</i>
   <i type="logical" name="LMUSIC"> F  </i>
   <v name="POMASS">      7.01000000     55.84700000     32.06600000     16.00000000</v>
   <v name="DARWINR">      0.00000000      0.00000000      0.00000000      0.00000000</v>
   <v name="DARWINV">      1.00000000      1.00000000      1.00000000      1.00000000</v>
   <i type="logical" name="LCORR"> T  </i>
  </separator>
  <i type="logical" name="GGA_COMPAT"> T  </i>
  <i type="logical" name="LBERRY"> F  </i>
  <i type="int" name="ICORELEVEL">     0</i>
  <i type="logical" name="LDAU"> T  </i>
  <v type="int" name="LDAUTYPE">     2</v>
  <v type="int" name="LDAUL">    -1</v>
  <v name="LDAUU">      0.00000000</v>
  <v name="LDAUJ">      0.00000000</v>
  <i type="int" name="LDAUPRINT">     0</i>
  <i type="int" name="I_CONSTRAINED_M">     0</i>
  <separator name="electronic exchange-correlation" >
   <i type="string" name="GGA">PE</i>
   <i type="int" name="VOSKOWN">     0</i>
   <i type="logical" name="LHFCALC"> F  </i>
   <i type="string" name="PRECFOCK"></i>
   <i type="logical" name="LSYMGRAD"> F  </i>
   <i type="logical" name="LHFONE"> F  </i>
   <i type="logical" name="LRHFCALC"> F  </i>
   <i type="logical" name="LTHOMAS"> F  </i>
   <i type="logical" name="LMODELHF"> F  </i>
   <i name="ENCUT4O">     -1.00000000</i>
   <i type="int" name="EXXOEP">     0</i>
   <i type="int" name="FOURORBIT">     0</i>
   <i name="AEXX">      0.00000000</i>
   <i name="HFALPHA">      0.00000000</i>
   <i name="MCALPHA">      0.00000000</i>
   <i name="ALDAX">      1.00000000</i>
   <i name="AGGAX">      1.00000000</i>
   <i name="ALDAC">      1.00000000</i>
   <i name="AGGAC">      1.00000000</i>
   <i type="int" name="NKREDX">     1</i>
   <i type="int" name="NKREDY">     1</i>
   <i type="int" name="NKREDZ">     1</i>
   <i type="logical" name="SHIFTRED"> F  </i>
   <i type="logical" name="ODDONLY"> F  </i>
   <i type="logical" name="EVENONLY"> F  </i>
   <i type="int" name="LMAXFOCK">     0</i>
   <i type="int" name="NMAXFOCKAE">     0</i>
   <i type="logical" name="LFOCKAEDFT"> F  </i>
   <i name="HFSCREEN">      0.00000000</i>
   <i name="HFSCREENC">      0.00000000</i>
   <i type="int" name="NBANDSGWLOW">     0</i>
  </separator>
  <separator name="vdW DFT" >
   <i type="logical" name="LUSE_VDW"> F  </i>
   <i name="Zab_VDW">     -0.84910000</i>
   <i name="PARAM1">      0.12340000</i>
   <i name="PARAM2">      1.00000000</i>
   <i name="PARAM3">      0.00000000</i>
  </separator>
  <separator name="model GW" >
   <i type="int" name="MODEL_GW">     0</i>
   <i name="MODEL_EPS0">      7.95228621</i>
   <i name="MODEL_ALPHA">      1.00000000</i>
  </separator>
  <separator name="linear response parameters" >
   <i type="logical" name="LEPSILON"> F  </i>
   <i type="logical" name="LRPA"> F  </i>
   <i type="logical" name="LNABLA"> F  </i>
   <i type="logical" name="LVEL"> F  </i>
   <i type="int" name="KINTER">     0</i>
   <i name="CSHIFT">      0.10000000</i>
   <i name="OMEGAMAX">     -1.00000000</i>
   <i name="DEG_THRESHOLD">      0.00200000</i>
   <i name="RTIME">     -0.10000000</i>
   <i name="WPLASMAI">      0.00000000</i>
   <v name="DFIELD">      0.00000000      0.00000000      0.00000000</v>
   <v name="WPLASMA">      0.00000000      0.00000000      0.00000000      0.00000000      0.00000000      0.00000000      0.00000000      0.00000000      0.00000000</v>
  </separator>
  <separator name="orbital magnetization" >
   <i type="logical" name="NUCIND"> F  </i>
   <v name="MAGPOS">      0.00000000      0.00000000      0.00000000</v>
   <i type="logical" name="LNICSALL"> T  </i>
   <i type="logical" name="ORBITALMAG"> F  </i>
   <i type="logical" name="LMAGBLOCH"> F  </i>
   <i type="logical" name="LCHIMAG"> F  </i>
   <i type="logical" name="LGAUGE"> T  </i>
   <i type="int" name="MAGATOM">     0</i>
   <v name="MAGDIPOL">      0.00000000      0.00000000      0.00000000</v>
   <v name="AVECCONST">      0.00000000      0.00000000      0.00000000</v>
  </separator>
  <separator name="response functions" >
   <i type="logical" name="LADDER"> F  </i>
   <i type="logical" name="LRPAFORCE"> F  </i>
   <i type="logical" name="LFXC"> F  </i>
   <i type="logical" name="LHARTREE"> T  </i>
   <i type="int" name="IBSE">     0</i>
   <v type="int" name="KPOINT">    -1     0     0     0</v>
   <i type="logical" name="LTCTE"> F  </i>
   <i type="logical" name="LTETE"> F  </i>
   <i type="logical" name="LTRIPLET"> F  </i>
   <i type="logical" name="LFXCEPS"> F  </i>
   <i type="logical" name="LFXHEG"> F  </i>
   <i type="int" name="NATURALO">     2</i>
   <i type="logical" name="L2ORDER"> F  </i>
   <i type="logical" name="LMP2LT"> F  </i>
   <i type="logical" name="LUSEW"> F  </i>
   <i name="ENCUTGW">     -2.00000000</i>
   <i name="ENCUTGWSOFT">     -2.00000000</i>
   <i name="ENCUTLF">     -1.00000000</i>
   <i type="int" name="LMAXMP2">    -1</i>
   <i name="SCISSOR">      0.00000000</i>
   <i type="int" name="NOMEGA">     0</i>
   <i type="int" name="NOMEGAR">     0</i>
   <i type="int" name="NBANDSGW">    -1</i>
   <i type="int" name="NBANDSO">    -1</i>
   <i type="int" name="NBANDSV">    -1</i>
   <i type="int" name="NELM">   200</i>
   <i type="int" name="NELMHF">     1</i>
   <i type="int" name="DIM">     3</i>
   <i type="int" name="ANTIRES">     0</i>
   <i name="OMEGAMAX">    -30.00000000</i>
   <i name="OMEGAMIN">    -30.00000000</i>
   <i name="OMEGATL">   -200.00000000</i>
   <i type="int" name="OMEGAGRID">   140</i>
   <i name="CSHIFT">     -0.10000000</i>
   <i type="logical" name="SELFENERGY"> F  </i>
   <i type="logical" name="LSPECTRAL"> F  </i>
   <i type="logical" name="LSPECTRALGW"> F  </i>
   <i type="logical" name="LSINGLES"> F  </i>
   <i type="logical" name="LFERMIGW"> F  </i>
   <i type="logical" name="ODDONLYGW"> F  </i>
   <i type="logical" name="EVENONLYGW"> F  </i>
   <i type="int" name="NKREDLFX">     1</i>
   <i type="int" name="NKREDLFY">     1</i>
   <i type="int" name="NKREDLFZ">     1</i>
   <i type="int" name="MAXMEM">  2800</i>
   <i type="int" name="TELESCOPE">     0</i>
   <i type="int" name="TAUPAR">     1</i>
   <i type="int" name="OMEGAPAR">    -1</i>
   <i name="LAMBDA">      1.00000000</i>
  </separator>
  <separator name="External order field" >
   <i name="OFIELD_KAPPA">      0.00000000</i>
   <v name="OFIELD_K">      0.00000000      0.00000000      0.00000000</v>
   <i name="OFIELD_Q6_NEAR">      0.00000000</i>
   <i name="OFIELD_Q6_FAR">      0.00000000</i>
   <i name="OFIELD_A">      0.00000000</i>
  </separator>
 </parameters>
 <atominfo>
  <atoms>     144 </atoms>
  <types>       4 </types>
  <array name="atoms" >
   <dimension dim="1">ion</dimension>
   <field type="string">element</field>
   <field type="int">atomtype</field>
   <set>
    <rc><c>Li</c><c>   1</c></rc>
    <rc><c>Li</c><c>   1</c></rc>
    <rc><c>Li</c><c>   1</c></rc>
    <rc><c>Li</c><c>   1</c></rc>
    <rc><c>Li</c><c>   1</c></rc>
    <rc><c>Li</c><c>   1</c></rc>
    <rc><c>Li</c><c>   1</c></rc>
    <rc><c>Li</c><c>   1</c></rc>
    <rc><c>Li</c><c>   1</c></rc>
    <rc><c>Li</c><c>   1</c></rc>
    <rc><c>Li</c><c>   1</c></rc>
    <rc><c>Li</c><c>   1</c></rc>
    <rc><c>Li</c><c>   1</c></rc>
    <rc><c>Li</c><c>   1</c></rc>
    <rc><c>Li</c><c>   1</c></rc>
    <rc><c>Li</c><c>   1</c></rc>
    <rc><c>Li</c><c>   1</c></rc>
    <rc><c>Li</c><c>   1</c></rc>
    <rc><c>Li</c><c>   1</c></rc>
    <rc><c>Li</c><c>   1</c></rc>
    <rc><c>Li</c><c>   1</c></rc>
    <rc><c>Li</c><c>   1</c></rc>
    <rc><c>Li</c><c>   1</c></rc>
    <rc><c>Li</c><c>   1</c></rc>
    <rc><c>Li</c><c>   1</c></rc>
    <rc><c>Li</c><c>   1</c></rc>
    <rc><c>Li</c><c>   1</c></rc>
    <rc><c>Li</c><c>   1</c></rc>
    <rc><c>Li</c><c>   1</c></rc>
    <rc><c>Li</c><c>   1</c></rc>
    <rc><c>Li</c><c>   1</c></rc>
    <rc><c>Li</c><c>   1</c></rc>
    <rc><c>Li</c><c>   1</c></rc>
    <rc><c>Li</c><c>   1</c></rc>
    <rc><c>Li</c><c>   1</c></rc>
    <rc><c>Li</c><c>   1</c></rc>
    <rc><c>Li</c><c>   1</c></rc>
    <rc><c>Li</c><c>   1</c></rc>
    <rc><c>Li</c><c>   1</c></rc>
    <rc><c>Li</c><c>   1</c></rc>
    <rc><c>Li</c><c>   1</c></rc>
    <rc><c>Li</c><c>   1</c></rc>
    <rc><c>Li</c><c>   1</c></rc>
    <rc><c>Li</c><c>   1</c></rc>
    <rc><c>Li</c><c>   1</c></rc>
    <rc><c>Li</c><c>   1</c></rc>
    <rc><c>Li</c><c>   1</c></rc>
    <rc><c>Li</c><c>   1</c></rc>
    <rc><c>Fe</c><c>   2</c></rc>
    <rc><c>Fe</c><c>   2</c></rc>
    <rc><c>Fe</c><c>   2</c></rc>
    <rc><c>Fe</c><c>   2</c></rc>
    <rc><c>Fe</c><c>   2</c></rc>
    <rc><c>Fe</c><c>   2</c></rc>
    <rc><c>Fe</c><c>   2</c></rc>
    <rc><c>Fe</c><c>   2</c></rc>
    <rc><c>Fe</c><c>   2</c></rc>
    <rc><c>Fe</c><c>   2</c></rc>
    <rc><c>Fe</c><c>   2</c></rc>
    <rc><c>Fe</c><c>   2</c></rc>
    <rc><c>Fe</c><c>   2</c></rc>
    <rc><c>Fe</c><c>   2</c></rc>
    <rc><c>Fe</c><c>   2</c></rc>
    <rc><c>Fe</c><c>   2</c></rc>
    <rc><c>Fe</c><c>   2</c></rc>
    <rc><c>Fe</c><c>   2</c></rc>
    <rc><c>Fe</c><c>   2</c></rc>
    <rc><c>Fe</c><c>   2</c></rc>
    <rc><c>Fe</c><c>   2</c></rc>
    <rc><c>Fe</c><c>   2</c></rc>
    <rc><c>Fe</c><c>   2</c></rc>
    <rc><c>Fe</c><c>   2</c></rc>
    <rc><c>Fe</c><c>   2</c></rc>
    <rc><c>Fe</c><c>   2</c></rc>
    <rc><c>Fe</c><c>   2</c></rc>
    <rc><c>Fe</c><c>   2</c></rc>
    <rc><c>Fe</c><c>   2</c></rc>
    <rc><c>Fe</c><c>   2</c></rc>
    <rc><c>Fe</c><c>   2</c></rc>
    <rc><c>Fe</c><c>   2</c></rc>
    <rc><c>Fe</c><c>   2</c></rc>
    <rc><c>Fe</c><c>   2</c></rc>
    <rc><c>Fe</c><c>   2</c></rc>
    <rc><c>Fe</c><c>   2</c></rc>
    <rc><c>S </c><c>   3</c></rc>
    <rc><c>S </c><c>   3</c></rc>
    <rc><c>S </c><c>   3</c></rc>
    <rc><c>S </c><c>   3</c></rc>
    <rc><c>S </c><c>   3</c></rc>
    <rc><c>S </c><c>   3</c></rc>
    <rc><c>S </c><c>   3</c></rc>
    <rc><c>S </c><c>   3</c></rc>
    <rc><c>S </c><c>   3</c></rc>
    <rc><c>S </c><c>   3</c></rc>
    <rc><c>S </c><c>   3</c></rc>
    <rc><c>S </c><c>   3</c></rc>
    <rc><c>S </c><c>   3</c></rc>
    <rc><c>S </c><c>   3</c></rc>
    <rc><c>S </c><c>   3</c></rc>
    <rc><c>S </c><c>   3</c></rc>
    <rc><c>S </c><c>   3</c></rc>
    <rc><c>S </c><c>   3</c></rc>
    <rc><c>S </c><c>   3</c></rc>
    <rc><c>S </c><c>   3</c></rc>
    <rc><c>S </c><c>   3</c></rc>
    <rc><c>S </c><c>   3</c></rc>
    <rc><c>S </c><c>   3</c></rc>
    <rc><c>S </c><c>   3</c></rc>
    <rc><c>S </c><c>   3</c></rc>
    <rc><c>S </c><c>   3</c></rc>
    <rc><c>S </c><c>   3</c></rc>
    <rc><c>S </c><c>   3</c></rc>
    <rc><c>S </c><c>   3</c></rc>
    <rc><c>S </c><c>   3</c></rc>
    <rc><c>S </c><c>   3</c></rc>
    <rc><c>S </c><c>   3</c></rc>
    <rc><c>S </c><c>   3</c></rc>
    <rc><c>S </c><c>   3</c></rc>
    <rc><c>S </c><c>   3</c></rc>
    <rc><c>S </c><c>   3</c></rc>
    <rc><c>O </c><c>   4</c></rc>
    <rc><c>O </c><c>   4</c></rc>
    <rc><c>O </c><c>   4</c></rc>
    <rc><c>O </c><c>   4</c></rc>
    <rc><c>O </c><c>   4</c></rc>
    <rc><c>O </c><c>   4</c></rc>
    <rc><c>O </c><c>   4</c></rc>
    <rc><c>O </c><c>   4</c></rc>
    <rc><c>O </c><c>   4</c></rc>
    <rc><c>O </c><c>   4</c></rc>
    <rc><c>O </c><c>   4</c></rc>
    <rc><c>O </c><c>   4</c></rc>
    <rc><c>O </c><c>   4</c></rc>
    <rc><c>O </c><c>   4</c></rc>
    <rc><c>O </c><c>   4</c></rc>
    <rc><c>O </c><c>   4</c></rc>
    <rc><c>O </c><c>   4</c></rc>
    <rc><c>O </c><c>   4</c></rc>
    <rc><c>O </c><c>   4</c></rc>
    <rc><c>O </c><c>   4</c></rc>
    <rc><c>O </c><c>   4</c></rc>
    <rc><c>O </c><c>   4</c></rc>
    <rc><c>O </c><c>   4</c></rc>
    <rc><c>O </c><c>   4</c></rc>
   </set>
  </array>
  <array name="atomtypes" >
   <dimension dim="1">type</dimension>
   <field type="int">atomspertype</field>
   <field type="string">element</field>
   <field>mass</field>
   <field>valence</field>
   <field type="string">pseudopotential</field>
   <set>
    <rc><c>  48</c><c>Li</c><c>      7.01000000</c><c>      3.00000000</c><c>  PAW_PBE Li_sv 10Sep2004               </c></rc>
    <rc><c>  36</c><c>Fe</c><c>     55.84700000</c><c>     14.00000000</c><c>  PAW_PBE Fe_pv 02Aug2007               </c></rc>
    <rc><c>  36</c><c>S </c><c>     32.06600000</c><c>      6.00000000</c><c>  PAW_PBE S 06Sep2000                   </c></rc>
    <rc><c>  24</c><c>O </c><c>     16.00000000</c><c>      6.00000000</c><c>  PAW_PBE O 08Apr2002                   </c></rc>
   </set>
  </array>
 </atominfo>
 <structure name="initialpos" >
  <crystal>
   <varray name="basis" >
    <v>      15.21162830       0.00516956      -2.78361592 </v>
    <v>      -0.40798665      11.93565774      -2.20735884 </v>
    <v>      -0.06175567      -0.11168197      10.54442638 </v>
   </varray>
   <i name="volume">   1908.54869108 </i>
   <varray name="rec_basis" >
    <v>       0.06581343       0.00232549       0.00041008 </v>
    <v>       0.00013433       0.08395174       0.00088997 </v>
    <v>       0.01740216       0.01818827       0.09513139 </v>
   </varray>
  </crystal>
  <varray name="positions" >
   <v>       0.47527516       0.00074367       0.00446200 </v>
   <v>       0.97527516       0.00074367       0.00446200 </v>
   <v>       0.47527516       0.33407700       0.00446200 </v>
   <v>       0.97527516       0.33407700       0.00446200 </v>
   <v>       0.47527516       0.66741034       0.00446200 </v>
   <v>       0.97527516       0.66741034       0.00446200 </v>
   <v>       0.27472484       0.33258966       0.99553800 </v>
   <v>       0.77472484       0.33258966       0.99553800 </v>
   <v>       0.27472484       0.66592300       0.99553800 </v>
   <v>       0.77472484       0.66592300       0.99553800 </v>
   <v>       0.27472484       0.99925633       0.99553800 </v>
   <v>       0.77472484       0.99925633       0.99553800 </v>
   <v>       0.17788805       0.26797179       0.60688244 </v>
   <v>       0.67788805       0.26797179       0.60783074 </v>
   <v>       0.17788805       0.60130513       0.60783074 </v>
   <v>       0.67788805       0.60130513       0.60783074 </v>
   <v>       0.17788805       0.93463846       0.60783074 </v>
   <v>       0.67788805       0.93463846       0.60783074 </v>
   <v>       0.07211195       0.06536154       0.39216926 </v>
   <v>       0.57211195       0.06536154       0.39216926 </v>
   <v>       0.07211195       0.39869487       0.39216926 </v>
   <v>       0.57211195       0.39869487       0.39216926 </v>
   <v>       0.07211195       0.73202821       0.39216926 </v>
   <v>       0.57211195       0.73202821       0.39216926 </v>
   <v>       0.10733875       0.30765571       0.84593428 </v>
   <v>       0.60733875       0.30765571       0.84593428 </v>
   <v>       0.10733875       0.64098905       0.84593428 </v>
   <v>       0.60733875       0.64098905       0.84593428 </v>
   <v>       0.10733875       0.97432238       0.84593428 </v>
   <v>       0.60733875       0.97432238       0.84593428 </v>
   <v>       0.34464416       0.29539312       0.77235872 </v>
   <v>       0.84464416       0.29539312       0.77235872 </v>
   <v>       0.34464416       0.62872645       0.77235872 </v>
   <v>       0.84464416       0.62872645       0.77235872 </v>
   <v>       0.34464416       0.96205979       0.77235872 </v>
   <v>       0.84464416       0.96205979       0.77235872 </v>
   <v>       0.14266125       0.02567762       0.15406572 </v>
   <v>       0.64266125       0.02567762       0.15406572 </v>
   <v>       0.14266125       0.35901095       0.15406572 </v>
   <v>       0.64266125       0.35901095       0.15406572 </v>
   <v>       0.14266125       0.69234429       0.15406572 </v>
   <v>       0.64266125       0.69234429       0.15406572 </v>
   <v>       0.40535584       0.03794021       0.22764128 </v>
   <v>       0.90535584       0.03794021       0.22764128 </v>
   <v>       0.40535584       0.37127355       0.22764128 </v>
   <v>       0.90535584       0.37127355       0.22764128 </v>
   <v>       0.40535584       0.70460688       0.22764128 </v>
   <v>       0.90535584       0.70460688       0.22764128 </v>
   <v>       0.46517249       0.26691416       0.60148498 </v>
   <v>       0.96517249       0.26691416       0.60148498 </v>
   <v>       0.46517249       0.60024750       0.60148498 </v>
   <v>       0.96517249       0.60024750       0.60148498 </v>
   <v>       0.46517249       0.93358083       0.60148498 </v>
   <v>       0.96517249       0.93358083       0.60148498 </v>
   <v>       0.28482751       0.06641917       0.39851502 </v>
   <v>       0.78482751       0.06641917       0.39851502 </v>
   <v>       0.28482751       0.39975250       0.39851502 </v>
   <v>       0.78482751       0.39975250       0.39851502 </v>
   <v>       0.28482751       0.73308584       0.39851502 </v>
   <v>       0.78482751       0.73308584       0.39851502 </v>
   <v>       0.22447416       0.13353711       0.80122268 </v>
   <v>       0.72447416       0.13353711       0.80122268 </v>
   <v>       0.22447416       0.46687045       0.80122268 </v>
   <v>       0.72447416       0.46687045       0.80122268 </v>
   <v>       0.22447416       0.80020378       0.80122268 </v>
   <v>       0.72447416       0.80020378       0.80122268 </v>
   <v>       0.47796479       0.13582521       0.81495126 </v>
   <v>       0.97796479       0.13582521       0.81495126 </v>
   <v>       0.47796479       0.46915854       0.81495126 </v>
   <v>       0.97796479       0.46915854       0.81495126 </v>
   <v>       0.47796479       0.80249188       0.81495126 </v>
   <v>       0.97796479       0.80249188       0.81495126 </v>
   <v>       0.02552584       0.19979622       0.19877732 </v>
   <v>       0.52552584       0.19979622       0.19877732 </v>
   <v>       0.02552584       0.53312955       0.19877732 </v>
   <v>       0.52552584       0.53312955       0.19877732 </v>
   <v>       0.02552584       0.86646289       0.19877732 </v>
   <v>       0.52552584       0.86646289       0.19877732 </v>
   <v>       0.27203521       0.19750812       0.18504874 </v>
   <v>       0.77203521       0.19750812       0.18504874 </v>
   <v>       0.27203521       0.53084146       0.18504874 </v>
   <v>       0.77203521       0.53084146       0.18504874 </v>
   <v>       0.27203521       0.86417479       0.18504874 </v>
   <v>       0.77203521       0.86417479       0.18504874 </v>
   <v>       0.12500000       0.16666667       0.00000000 </v>
   <v>       0.62500000       0.16666667       0.00000000 </v>
   <v>       0.12500000       0.50000000       0.00000000 </v>
   <v>       0.62500000       0.50000000       0.00000000 </v>
   <v>       0.12500000       0.83333333       0.00000000 </v>
   <v>       0.62500000       0.83333333       0.00000000 </v>
   <v>       0.37500000       0.16666667       0.00000000 </v>
   <v>       0.87500000       0.16666667       0.00000000 </v>
   <v>       0.37500000       0.50000000       0.00000000 </v>
   <v>       0.87500000       0.50000000       0.00000000 </v>
   <v>       0.37500000       0.83333333       0.00000000 </v>
   <v>       0.87500000       0.83333333       0.00000000 </v>
   <v>       0.17614737       0.22809805       0.36858830 </v>
   <v>       0.67614737       0.22809805       0.36858830 </v>
   <v>       0.17614737       0.56143138       0.36858830 </v>
   <v>       0.67614737       0.56143138       0.36858830 </v>
   <v>       0.17614737       0.89476472       0.36858830 </v>
   <v>       0.67614737       0.89476472       0.36858830 </v>
   <v>       0.41542106       0.22793643       0.36761855 </v>
   <v>       0.91542106       0.22793643       0.36761855 </v>
   <v>       0.41542106       0.56126976       0.36761855 </v>
   <v>       0.91542106       0.56126976       0.36761855 </v>
   <v>       0.41542106       0.89460309       0.36761855 </v>
   <v>       0.91542106       0.89460309       0.36761855 </v>
   <v>       0.07385263       0.10523528       0.63141170 </v>
   <v>       0.57385263       0.10523528       0.63141170 </v>
   <v>       0.07385263       0.43856862       0.63141170 </v>
   <v>       0.57385263       0.43856862       0.63141170 </v>
   <v>       0.07385263       0.77190195       0.63141170 </v>
   <v>       0.57385263       0.77190195       0.63141170 </v>
   <v>       0.33457894       0.10539691       0.63238145 </v>
   <v>       0.83457894       0.10539691       0.63238145 </v>
   <v>       0.33457894       0.43873024       0.63238145 </v>
   <v>       0.83457894       0.43873024       0.63238145 </v>
   <v>       0.33457894       0.77206357       0.63238145 </v>
   <v>       0.83457894       0.77206357       0.63238145 </v>
   <v>       0.22527003       0.30093342       0.80560053 </v>
   <v>       0.72527003       0.30093342       0.80560053 </v>
   <v>       0.22527003       0.63426676       0.80560053 </v>
   <v>       0.72527003       0.63426676       0.80560053 </v>
   <v>       0.22527003       0.96760009       0.80560053 </v>
   <v>       0.72527003       0.96760009       0.80560053 </v>
   <v>       0.47618324       0.30143353       0.80860116 </v>
   <v>       0.97618324       0.30143353       0.80860116 </v>
   <v>       0.47618324       0.63476686       0.80860116 </v>
   <v>       0.97618324       0.63476686       0.80860116 </v>
   <v>       0.47618324       0.96810019       0.80860116 </v>
   <v>       0.97618324       0.96810019       0.80860116 </v>
   <v>       0.02472997       0.03239991       0.19439947 </v>
   <v>       0.52472997       0.03239991       0.19439947 </v>
   <v>       0.02472997       0.36573324       0.19439947 </v>
   <v>       0.52472997       0.36573324       0.19439947 </v>
   <v>       0.02472997       0.69906658       0.19439947 </v>
   <v>       0.52472997       0.69906658       0.19439947 </v>
   <v>       0.27381676       0.03189981       0.19139884 </v>
   <v>       0.77381676       0.03189981       0.19139884 </v>
   <v>       0.27381676       0.36523314       0.19139884 </v>
   <v>       0.77381676       0.36523314       0.19139884 </v>
   <v>       0.27381676       0.69856647       0.19139884 </v>
   <v>       0.77381676       0.69856647       0.19139884 </v>
  </varray>
 </structure>
 <calculation>
  <scstep>
   <time name="dav">  338.05  340.93</time>
   <time name="total">  340.64  343.58</time>
   <energy>
    <i name="alphaZ">   2668.72143546 </i>
    <i name="ewald"> -68026.75572389 </i>
    <i name="hartreedc"> -39874.63762128 </i>
    <i name="XCdc">   4298.61898557 </i>
    <i name="pawpsdc"> 114383.84820647 </i>
    <i name="pawaedc">-118048.71515856 </i>
    <i name="eentropy">     -0.02962829 </i>
    <i name="bandstr">   -564.23219739 </i>
    <i name="atom"> 118542.86816856 </i>
    <i name="e_fr_energy">  13379.68646666 </i>
    <i name="e_wo_entrp">  13379.71609495 </i>
    <i name="e_0_energy">  13379.70128080 </i>
   </energy>
  </scstep>
  <scstep>
   <time name="dav">  326.21  329.01</time>
   <time name="total">  326.22  329.02</time>
   <energy>
    <i name="e_fr_energy">   1421.87157975 </i>
    <i name="e_wo_entrp">   1421.95618421 </i>
    <i name="e_0_energy">   1421.91388198 </i>
   </energy>
  </scstep>
  <scstep>
   <time name="dav">  351.09  354.36</time>
   <time name="total">  351.09  354.37</time>
   <energy>
    <i name="e_fr_energy">   -473.21627533 </i>
    <i name="e_wo_entrp">   -473.21627533 </i>
    <i name="e_0_energy">   -473.21627533 </i>
   </energy>
  </scstep>
  <scstep>
   <time name="dav">  392.37  395.71</time>
   <time name="total">  392.37  395.71</time>
   <energy>
    <i name="e_fr_energy">   -716.02683456 </i>
    <i name="e_wo_entrp">   -716.02683456 </i>
    <i name="e_0_energy">   -716.02683456 </i>
   </energy>
  </scstep>
  <scstep>
   <time name="dav">  515.12  520.36</time>
   <time name="total">  525.86  531.26</time>
   <energy>
    <i name="e_fr_energy">   -745.36694422 </i>
    <i name="e_wo_entrp">   -745.36694422 </i>
    <i name="e_0_energy">   -745.36694422 </i>
   </energy>
  </scstep>
  <scstep>
   <time name="dav">  412.70  416.72</time>
   <time name="total">  426.18  430.27</time>
   <energy>
    <i name="e_fr_energy">   -746.58257464 </i>
    <i name="e_wo_entrp">   -746.58257464 </i>
    <i name="e_0_energy">   -746.58257464 </i>
   </energy>
  </scstep>
  <scstep>
   <time name="dav">  468.01  472.31</time>
   <time name="total">  481.35  485.76</time>
   <energy>
    <i name="e_fr_energy">   -746.63647736 </i>
    <i name="e_wo_entrp">   -746.63647736 </i>
    <i name="e_0_energy">   -746.63647736 </i>
   </energy>
  </scstep>
  <scstep>
   <time name="dav">  439.42  443.74</time>
   <time name="total">  452.79  457.22</time>
   <energy>
    <i name="e_fr_energy">   -746.63570843 </i>
    <i name="e_wo_entrp">   -746.63570843 </i>
    <i name="e_0_energy">   -746.63570843 </i>
   </energy>
  </scstep>
  <scstep>
   <time name="dav">  464.76  473.09</time>
   <time name="total">  477.94  486.59</time>
   <energy>
    <i name="e_fr_energy">   -746.63509185 </i>
    <i name="e_wo_entrp">   -746.63509185 </i>
    <i name="e_0_energy">   -746.63509185 </i>
   </energy>
  </scstep>
  <scstep>
   <time name="dav">  471.83  481.01</time>
   <time name="total">  485.22  494.56</time>
   <energy>
    <i name="e_fr_energy">   -746.63401205 </i>
    <i name="e_wo_entrp">   -746.63401205 </i>
    <i name="e_0_energy">   -746.63401205 </i>
   </energy>
  </scstep>
  <scstep>
   <time name="dav">  480.98  485.10</time>
   <time name="total">  494.40  498.69</time>
   <energy>
    <i name="e_fr_energy">   -746.63199342 </i>
    <i name="e_wo_entrp">   -746.63199342 </i>
    <i name="e_0_energy">   -746.63199342 </i>
   </energy>
  </scstep>
  <scstep>
   <time name="dav">  378.36  382.19</time>
   <time name="total">  391.89  395.80</time>
   <energy>
    <i name="e_fr_energy">   -746.63154216 </i>
    <i name="e_wo_entrp">   -746.63154216 </i>
    <i name="e_0_energy">   -746.63154216 </i>
   </energy>
  </scstep>
  <scstep>
   <time name="dav">  433.35  437.25</time>
   <time name="total">  446.77  450.84</time>
   <energy>
    <i name="e_fr_energy">   -746.63133089 </i>
    <i name="e_wo_entrp">   -746.63133089 </i>
    <i name="e_0_energy">   -746.63133089 </i>
   </energy>
  </scstep>
  <scstep>
   <time name="dav">  428.16  431.85</time>
   <time name="total">  441.56  445.41</time>
   <energy>
    <i name="e_fr_energy">   -746.63125848 </i>
    <i name="e_wo_entrp">   -746.63125848 </i>
    <i name="e_0_energy">   -746.63125848 </i>
   </energy>
  </scstep>
  <scstep>
   <time name="dav">  329.91  333.35</time>
   <time name="total">  343.39  346.90</time>
   <energy>
    <i name="e_fr_energy">   -746.63115664 </i>
    <i name="e_wo_entrp">   -746.63115664 </i>
    <i name="e_0_energy">   -746.63115664 </i>
   </energy>
  </scstep>
  <scstep>
   <time name="dav">  436.16  440.09</time>
   <time name="total">  449.65  453.69</time>
   <energy>
    <i name="e_fr_energy">   -746.63102562 </i>
    <i name="e_wo_entrp">   -746.63102562 </i>
    <i name="e_0_energy">   -746.63102562 </i>
   </energy>
  </scstep>
  <scstep>
   <time name="dav">  396.29  399.93</time>
   <time name="total">  409.69  413.45</time>
   <energy>
    <i name="e_fr_energy">   -746.63101910 </i>
    <i name="e_wo_entrp">   -746.63101910 </i>
    <i name="e_0_energy">   -746.63101910 </i>
   </energy>
  </scstep>
  <scstep>
   <time name="dav">  359.81  363.04</time>
   <time name="total">  373.21  376.56</time>
   <energy>
    <i name="e_fr_energy">   -746.63102063 </i>
    <i name="e_wo_entrp">   -746.63102063 </i>
    <i name="e_0_energy">   -746.63102063 </i>
   </energy>
  </scstep>
  <scstep>
   <time name="dav">  236.39  238.49</time>
   <time name="total">  238.99  241.11</time>
   <energy>
    <i name="alphaZ">   2668.72143546 </i>
    <i name="ewald"> -68026.75572389 </i>
    <i name="hartreedc"> -39874.51525600 </i>
    <i name="XCdc">   4298.60405273 </i>
    <i name="pawpsdc"> 114378.86930703 </i>
    <i name="pawaedc">-118043.62649216 </i>
    <i name="eentropy">     -0.00000000 </i>
    <i name="bandstr"> -14690.79651265 </i>
    <i name="atom"> 118542.86816856 </i>
    <i name="e_fr_energy">   -746.63102090 </i>
    <i name="e_wo_entrp">   -746.63102090 </i>
    <i name="e_0_energy">   -746.63102090 </i>
   </energy>
  </scstep>
  <structure>
   <crystal>
    <varray name="basis" >
     <v>      15.21162830       0.00516956      -2.78361592 </v>
     <v>      -0.40798665      11.93565774      -2.20735884 </v>
     <v>      -0.06175567      -0.11168197      10.54442638 </v>
    </varray>
    <i name="volume">   1908.54869108 </i>
    <varray name="rec_basis" >
     <v>       0.06581343       0.00232549       0.00041008 </v>
     <v>       0.00013433       0.08395174       0.00088997 </v>
     <v>       0.01740216       0.01818827       0.09513139 </v>
    </varray>
   </crystal>
   <varray name="positions" >
    <v>       0.47527516       0.00074367       0.00446200 </v>
    <v>       0.97527516       0.00074367       0.00446200 </v>
    <v>       0.47527516       0.33407700       0.00446200 </v>
    <v>       0.97527516       0.33407700       0.00446200 </v>
    <v>       0.47527516       0.66741034       0.00446200 </v>
    <v>       0.97527516       0.66741034       0.00446200 </v>
    <v>       0.27472484       0.33258966       0.99553800 </v>
    <v>       0.77472484       0.33258966       0.99553800 </v>
    <v>       0.27472484       0.66592300       0.99553800 </v>
    <v>       0.77472484       0.66592300       0.99553800 </v>
    <v>       0.27472484       0.99925633       0.99553800 </v>
    <v>       0.77472484       0.99925633       0.99553800 </v>
    <v>       0.17788805       0.26797179       0.60688244 </v>
    <v>       0.67788805       0.26797179       0.60783074 </v>
    <v>       0.17788805       0.60130513       0.60783074 </v>
    <v>       0.67788805       0.60130513       0.60783074 </v>
    <v>       0.17788805       0.93463846       0.60783074 </v>
    <v>       0.67788805       0.93463846       0.60783074 </v>
    <v>       0.07211195       0.06536154       0.39216926 </v>
    <v>       0.57211195       0.06536154       0.39216926 </v>
    <v>       0.07211195       0.39869487       0.39216926 </v>
    <v>       0.57211195       0.39869487       0.39216926 </v>
    <v>       0.07211195       0.73202821       0.39216926 </v>
    <v>       0.57211195       0.73202821       0.39216926 </v>
    <v>       0.10733875       0.30765571       0.84593428 </v>
    <v>       0.60733875       0.30765571       0.84593428 </v>
    <v>       0.10733875       0.64098905       0.84593428 </v>
    <v>       0.60733875       0.64098905       0.84593428 </v>
    <v>       0.10733875       0.97432238       0.84593428 </v>
    <v>       0.60733875       0.97432238       0.84593428 </v>
    <v>       0.34464416       0.29539312       0.77235872 </v>
    <v>       0.84464416       0.29539312       0.77235872 </v>
    <v>       0.34464416       0.62872645       0.77235872 </v>
    <v>       0.84464416       0.62872645       0.77235872 </v>
    <v>       0.34464416       0.96205979       0.77235872 </v>
    <v>       0.84464416       0.96205979       0.77235872 </v>
    <v>       0.14266125       0.02567762       0.15406572 </v>
    <v>       0.64266125       0.02567762       0.15406572 </v>
    <v>       0.14266125       0.35901095       0.15406572 </v>
    <v>       0.64266125       0.35901095       0.15406572 </v>
    <v>       0.14266125       0.69234429       0.15406572 </v>
    <v>       0.64266125       0.69234429       0.15406572 </v>
    <v>       0.40535584       0.03794021       0.22764128 </v>
    <v>       0.90535584       0.03794021       0.22764128 </v>
    <v>       0.40535584       0.37127355       0.22764128 </v>
    <v>       0.90535584       0.37127355       0.22764128 </v>
    <v>       0.40535584       0.70460688       0.22764128 </v>
    <v>       0.90535584       0.70460688       0.22764128 </v>
    <v>       0.46517249       0.26691416       0.60148498 </v>
    <v>       0.96517249       0.26691416       0.60148498 </v>
    <v>       0.46517249       0.60024750       0.60148498 </v>
    <v>       0.96517249       0.60024750       0.60148498 </v>
    <v>       0.46517249       0.93358083       0.60148498 </v>
    <v>       0.96517249       0.93358083       0.60148498 </v>
    <v>       0.28482751       0.06641917       0.39851502 </v>
    <v>       0.78482751       0.06641917       0.39851502 </v>
    <v>       0.28482751       0.39975250       0.39851502 </v>
    <v>       0.78482751       0.39975250       0.39851502 </v>
    <v>       0.28482751       0.73308584       0.39851502 </v>
    <v>       0.78482751       0.73308584       0.39851502 </v>
    <v>       0.22447416       0.13353711       0.80122268 </v>
    <v>       0.72447416       0.13353711       0.80122268 </v>
    <v>       0.22447416       0.46687045       0.80122268 </v>
    <v>       0.72447416       0.46687045       0.80122268 </v>
    <v>       0.22447416       0.80020378       0.80122268 </v>
    <v>       0.72447416       0.80020378       0.80122268 </v>
    <v>       0.47796479       0.13582521       0.81495126 </v>
    <v>       0.97796479       0.13582521       0.81495126 </v>
    <v>       0.47796479       0.46915854       0.81495126 </v>
    <v>       0.97796479       0.46915854       0.81495126 </v>
    <v>       0.47796479       0.80249188       0.81495126 </v>
    <v>       0.97796479       0.80249188       0.81495126 </v>
    <v>       0.02552584       0.19979622       0.19877732 </v>
    <v>       0.52552584       0.19979622       0.19877732 </v>
    <v>       0.02552584       0.53312955       0.19877732 </v>
    <v>       0.52552584       0.53312955       0.19877732 </v>
    <v>       0.02552584       0.86646289       0.19877732 </v>
    <v>       0.52552584       0.86646289       0.19877732 </v>
    <v>       0.27203521       0.19750812       0.18504874 </v>
    <v>       0.77203521       0.19750812       0.18504874 </v>
    <v>       0.27203521       0.53084146       0.18504874 </v>
    <v>       0.77203521       0.53084146       0.18504874 </v>
    <v>       0.27203521       0.86417479       0.18504874 </v>
    <v>       0.77203521       0.86417479       0.18504874 </v>
    <v>       0.12500000       0.16666667       0.00000000 </v>
    <v>       0.62500000       0.16666667       0.00000000 </v>
    <v>       0.12500000       0.50000000       0.00000000 </v>
    <v>       0.62500000       0.50000000       0.00000000 </v>
    <v>       0.12500000       0.83333333       0.00000000 </v>
    <v>       0.62500000       0.83333333       0.00000000 </v>
    <v>       0.37500000       0.16666667       0.00000000 </v>
    <v>       0.87500000       0.16666667       0.00000000 </v>
    <v>       0.37500000       0.50000000       0.00000000 </v>
    <v>       0.87500000       0.50000000       0.00000000 </v>
    <v>       0.37500000       0.83333333       0.00000000 </v>
    <v>       0.87500000       0.83333333       0.00000000 </v>
    <v>       0.17614737       0.22809805       0.36858830 </v>
    <v>       0.67614737       0.22809805       0.36858830 </v>
    <v>       0.17614737       0.56143138       0.36858830 </v>
    <v>       0.67614737       0.56143138       0.36858830 </v>
    <v>       0.17614737       0.89476472       0.36858830 </v>
    <v>       0.67614737       0.89476472       0.36858830 </v>
    <v>       0.41542106       0.22793643       0.36761855 </v>
    <v>       0.91542106       0.22793643       0.36761855 </v>
    <v>       0.41542106       0.56126976       0.36761855 </v>
    <v>       0.91542106       0.56126976       0.36761855 </v>
    <v>       0.41542106       0.89460309       0.36761855 </v>
    <v>       0.91542106       0.89460309       0.36761855 </v>
    <v>       0.07385263       0.10523528       0.63141170 </v>
    <v>       0.57385263       0.10523528       0.63141170 </v>
    <v>       0.07385263       0.43856862       0.63141170 </v>
    <v>       0.57385263       0.43856862       0.63141170 </v>
    <v>       0.07385263       0.77190195       0.63141170 </v>
    <v>       0.57385263       0.77190195       0.63141170 </v>
    <v>       0.33457894       0.10539691       0.63238145 </v>
    <v>       0.83457894       0.10539691       0.63238145 </v>
    <v>       0.33457894       0.43873024       0.63238145 </v>
    <v>       0.83457894       0.43873024       0.63238145 </v>
    <v>       0.33457894       0.77206357       0.63238145 </v>
    <v>       0.83457894       0.77206357       0.63238145 </v>
    <v>       0.22527003       0.30093342       0.80560053 </v>
    <v>       0.72527003       0.30093342       0.80560053 </v>
    <v>       0.22527003       0.63426676       0.80560053 </v>
    <v>       0.72527003       0.63426676       0.80560053 </v>
    <v>       0.22527003       0.96760009       0.80560053 </v>
    <v>       0.72527003       0.96760009       0.80560053 </v>
    <v>       0.47618324       0.30143353       0.80860116 </v>
    <v>       0.97618324       0.30143353       0.80860116 </v>
    <v>       0.47618324       0.63476686       0.80860116 </v>
    <v>       0.97618324       0.63476686       0.80860116 </v>
    <v>       0.47618324       0.96810019       0.80860116 </v>
    <v>       0.97618324       0.96810019       0.80860116 </v>
    <v>       0.02472997       0.03239991       0.19439947 </v>
    <v>       0.52472997       0.03239991       0.19439947 </v>
    <v>       0.02472997       0.36573324       0.19439947 </v>
    <v>       0.52472997       0.36573324       0.19439947 </v>
    <v>       0.02472997       0.69906658       0.19439947 </v>
    <v>       0.52472997       0.69906658       0.19439947 </v>
    <v>       0.27381676       0.03189981       0.19139884 </v>
    <v>       0.77381676       0.03189981       0.19139884 </v>
    <v>       0.27381676       0.36523314       0.19139884 </v>
    <v>       0.77381676       0.36523314       0.19139884 </v>
    <v>       0.27381676       0.69856647       0.19139884 </v>
    <v>       0.77381676       0.69856647       0.19139884 </v>
   </varray>
  </structure>
  <varray name="forces" >
   <v>       0.00006620      -0.00001903      -0.00009054 </v>
   <v>       0.00011546      -0.00014658      -0.00037086 </v>
   <v>      -0.00002330      -0.00008425      -0.00012852 </v>
   <v>       0.00014455      -0.00009890      -0.00042266 </v>
   <v>       0.00006775      -0.00018887      -0.00000623 </v>
   <v>       0.00021844      -0.00018152      -0.00014938 </v>
   <v>      -0.00049511      -0.00013279      -0.00133744 </v>
   <v>      -0.00014253       0.00012521       0.00012572 </v>
   <v>      -0.00015108      -0.00001979       0.00002984 </v>
   <v>      -0.00013007       0.00010809       0.00017304 </v>
   <v>      -0.00014543       0.00005307      -0.00023448 </v>
   <v>      -0.00015135       0.00009028       0.00014475 </v>
   <v>       0.00466418       0.00447235       0.03652456 </v>
   <v>      -0.00034435       0.00038210       0.00014956 </v>
   <v>      -0.00065777       0.00051294       0.00044595 </v>
   <v>      -0.00036755       0.00045273       0.00010518 </v>
   <v>      -0.00075022       0.00087122       0.00044732 </v>
   <v>      -0.00036688       0.00044485       0.00010108 </v>
   <v>      -0.00077060      -0.00199380       0.00046079 </v>
   <v>       0.00055972      -0.00051703      -0.00013522 </v>
   <v>      -0.00118254       0.00124107      -0.00081200 </v>
   <v>       0.00054844      -0.00035280      -0.00019527 </v>
   <v>       0.00022379      -0.00037344       0.00001953 </v>
   <v>       0.00050998      -0.00042199      -0.00016764 </v>
   <v>       0.00235744      -0.00071070      -0.00441664 </v>
   <v>      -0.00027616       0.00009549      -0.00018414 </v>
   <v>      -0.00016769       0.00005660      -0.00023755 </v>
   <v>      -0.00024457       0.00011404      -0.00017783 </v>
   <v>      -0.00021869       0.00015193      -0.00050584 </v>
   <v>      -0.00027275       0.00010290      -0.00018890 </v>
   <v>      -0.00454175      -0.00053871       0.00028166 </v>
   <v>      -0.00120607      -0.00027679      -0.00012072 </v>
   <v>      -0.00153676      -0.00009451       0.00018309 </v>
   <v>      -0.00131373      -0.00024008      -0.00009142 </v>
   <v>      -0.00155672      -0.00019795       0.00008563 </v>
   <v>      -0.00127430      -0.00025800      -0.00012555 </v>
   <v>       0.00004190      -0.00089690      -0.00052325 </v>
   <v>       0.00030190      -0.00010881       0.00021717 </v>
   <v>       0.00005249       0.00040508      -0.00081088 </v>
   <v>       0.00030197      -0.00008829       0.00020839 </v>
   <v>       0.00020597      -0.00023371      -0.00000068 </v>
   <v>       0.00031409      -0.00009256       0.00022596 </v>
   <v>       0.00152630       0.00016736      -0.00016028 </v>
   <v>       0.00116047       0.00016150       0.00013871 </v>
   <v>       0.00147785       0.00029967      -0.00020988 </v>
   <v>       0.00116111       0.00031735       0.00007045 </v>
   <v>       0.00134756       0.00017702      -0.00011121 </v>
   <v>       0.00128432       0.00028279       0.00007712 </v>
   <v>       0.00020141       0.00030575       0.00021208 </v>
   <v>       0.00070550       0.00007833       0.00041438 </v>
   <v>       0.00014159       0.00065547      -0.00033258 </v>
   <v>       0.00036910       0.00022328      -0.00043781 </v>
   <v>      -0.00010001       0.00055549      -0.00019565 </v>
   <v>       0.00077194       0.00126791      -0.00059761 </v>
   <v>       0.00223781      -0.00267955       0.00074465 </v>
   <v>       0.00004728      -0.00057939       0.00037211 </v>
   <v>       0.00211844       0.00190298      -0.00087885 </v>
   <v>       0.00000085      -0.00031405       0.00023747 </v>
   <v>       0.00025147      -0.00039361       0.00020687 </v>
   <v>       0.00009071      -0.00040246       0.00019777 </v>
   <v>      -0.00273147       0.00796756      -0.00642892 </v>
   <v>       0.00009488      -0.00021504       0.00005344 </v>
   <v>      -0.00131001      -0.00864464      -0.00056075 </v>
   <v>       0.00015066      -0.00021858       0.00020961 </v>
   <v>      -0.00006378      -0.00008082       0.00014324 </v>
   <v>       0.00012462      -0.00021250       0.00013922 </v>
   <v>      -0.00019519       0.00011692      -0.00004969 </v>
   <v>      -0.00004846       0.00013068      -0.00078052 </v>
   <v>       0.00003293      -0.00010061       0.00035810 </v>
   <v>      -0.00014836      -0.00035896       0.00005804 </v>
   <v>      -0.00022455       0.00010049      -0.00014006 </v>
   <v>      -0.00023450       0.00011428      -0.00031999 </v>
   <v>      -0.00195540      -0.00008668      -0.00150679 </v>
   <v>      -0.00013236       0.00011437      -0.00060400 </v>
   <v>      -0.00013538       0.00057458      -0.00057044 </v>
   <v>      -0.00020961       0.00021998      -0.00043125 </v>
   <v>      -0.00022994      -0.00022843      -0.00013024 </v>
   <v>      -0.00002522       0.00014750      -0.00023324 </v>
   <v>       0.00169017      -0.00022745      -0.00204215 </v>
   <v>       0.00020824      -0.00002667       0.00006849 </v>
   <v>       0.00017416       0.00034682      -0.00038679 </v>
   <v>       0.00030623       0.00007500       0.00015412 </v>
   <v>       0.00024860      -0.00056417       0.00006779 </v>
   <v>       0.00036271      -0.00006717       0.00024490 </v>
   <v>      -0.00011883      -0.00012746       0.00224165 </v>
   <v>       0.00001384      -0.00000074      -0.00000600 </v>
   <v>      -0.00044119       0.00058166       0.00086498 </v>
   <v>      -0.00001791      -0.00001803      -0.00007115 </v>
   <v>       0.00003819       0.00015308       0.00029554 </v>
   <v>      -0.00006154      -0.00001152      -0.00004111 </v>
   <v>       0.00063265      -0.00031396       0.00093004 </v>
   <v>       0.00013100       0.00005092       0.00025395 </v>
   <v>       0.00072044       0.00056474       0.00042367 </v>
   <v>       0.00000427      -0.00002527       0.00009157 </v>
   <v>       0.00003888       0.00008470       0.00015696 </v>
   <v>       0.00005500       0.00004833       0.00004948 </v>
   <v>      -0.00105212      -0.00221547      -0.01084878 </v>
   <v>      -0.00002794      -0.00037189       0.00016458 </v>
   <v>       0.00018738      -0.00097969       0.00032484 </v>
   <v>      -0.00003364      -0.00042505       0.00018171 </v>
   <v>       0.00015649       0.00006491      -0.00010244 </v>
   <v>      -0.00005264      -0.00037467       0.00015530 </v>
   <v>      -0.00069462      -0.00027298       0.00005602 </v>
   <v>       0.00044211      -0.00030220      -0.00044409 </v>
   <v>      -0.00005795      -0.00043199       0.00011531 </v>
   <v>       0.00000004      -0.00037705      -0.00028523 </v>
   <v>      -0.00005165      -0.00024286      -0.00012536 </v>
   <v>      -0.00014082      -0.00048891      -0.00045714 </v>
   <v>      -0.00025281      -0.00008847      -0.00184799 </v>
   <v>      -0.00007906       0.00044455      -0.00020944 </v>
   <v>      -0.00025845       0.00072450      -0.00235365 </v>
   <v>      -0.00021594       0.00036162      -0.00017994 </v>
   <v>       0.00000727       0.00018242      -0.00014579 </v>
   <v>      -0.00010068       0.00035331      -0.00015711 </v>
   <v>       0.00018559      -0.00018665      -0.00181838 </v>
   <v>      -0.00044111       0.00035224       0.00004785 </v>
   <v>      -0.00075351      -0.00031679      -0.00175654 </v>
   <v>      -0.00020648       0.00033374      -0.00000302 </v>
   <v>      -0.00003558       0.00018331      -0.00017744 </v>
   <v>      -0.00022448       0.00026699       0.00007301 </v>
   <v>      -0.00030637       0.00007743      -0.00621891 </v>
   <v>      -0.00008458       0.00012939       0.00007121 </v>
   <v>       0.00010789       0.00080214      -0.00008243 </v>
   <v>      -0.00008250       0.00007146       0.00005978 </v>
   <v>       0.00026629      -0.00090356       0.00057179 </v>
   <v>      -0.00006554       0.00011149       0.00009303 </v>
   <v>      -0.00029130      -0.00003538      -0.00047712 </v>
   <v>      -0.00086975       0.00010680       0.00007290 </v>
   <v>      -0.00063468      -0.00046290      -0.00041849 </v>
   <v>      -0.00035020      -0.00030372      -0.00019046 </v>
   <v>      -0.00049136      -0.00008317      -0.00031515 </v>
   <v>      -0.00050777      -0.00018941       0.00018433 </v>
   <v>       0.00077751       0.00100219       0.00036977 </v>
   <v>       0.00003720      -0.00004685       0.00017849 </v>
   <v>       0.00078950      -0.00100068       0.00070918 </v>
   <v>       0.00003843      -0.00018010       0.00021130 </v>
   <v>       0.00012928       0.00004383       0.00014448 </v>
   <v>       0.00009387       0.00004830       0.00008526 </v>
   <v>      -0.00029756       0.00154916       0.00109808 </v>
   <v>       0.00043551       0.00025312       0.00018515 </v>
   <v>      -0.00013076      -0.00086979       0.00176898 </v>
   <v>       0.00044656       0.00004501       0.00025420 </v>
   <v>       0.00040697       0.00026235       0.00051373 </v>
   <v>       0.00034017       0.00007908       0.00017963 </v>
  </varray>
  <varray name="stress" >
   <v>      -0.12592861       0.01589130       0.01705210 </v>
   <v>       0.00592183      -0.16301020      -0.07053671 </v>
   <v>      -0.02155452      -0.04166022      -0.10637852 </v>
  </varray>
  <energy>
   <i name="e_fr_energy">   -746.63102090 </i>
   <i name="e_wo_entrp">   -746.63102090 </i>
   <i name="e_0_energy">     -0.00000000 </i>
  </energy>
  <time name="totalsc"> 8430.80 8516.92</time>
  <eigenvalues>
   <array>
    <dimension dim="1">band</dimension>
    <dimension dim="2">kpoint</dimension>
    <dimension dim="3">spin</dimension>
    <field>eigene</field>
    <field>occ</field>
    <set>
     <set comment="spin 1">
      <set comment="kpoint 1">
       <r>  -51.6040    1.0000 </r>
       <r>  -51.6037    1.0000 </r>
       <r>  -51.6029    1.0000 </r>
       <r>  -51.6028    1.0000 </r>
       <r>  -51.6028    1.0000 </r>
       <r>  -51.6027    1.0000 </r>
       <r>  -51.6026    1.0000 </r>
       <r>  -51.6024    1.0000 </r>
       <r>  -51.6024    1.0000 </r>
       <r>  -51.6022    1.0000 </r>
       <r>  -51.6021    1.0000 </r>
       <r>  -51.6017    1.0000 </r>
       <r>  -51.4191    1.0000 </r>
       <r>  -51.4180    1.0000 </r>
       <r>  -51.4179    1.0000 </r>
       <r>  -51.4179    1.0000 </r>
       <r>  -51.4178    1.0000 </r>
       <r>  -51.4177    1.0000 </r>
       <r>  -51.4177    1.0000 </r>
       <r>  -51.4177    1.0000 </r>
       <r>  -51.4175    1.0000 </r>
       <r>  -51.4175    1.0000 </r>
       <r>  -51.4174    1.0000 </r>
       <r>  -51.4172    1.0000 </r>
       <r>  -51.2988    1.0000 </r>
       <r>  -51.2980    1.0000 </r>
       <r>  -51.2979    1.0000 </r>
       <r>  -51.2979    1.0000 </r>
       <r>  -51.2978    1.0000 </r>
       <r>  -51.2978    1.0000 </r>
       <r>  -51.2974    1.0000 </r>
       <r>  -51.2973    1.0000 </r>
       <r>  -51.2971    1.0000 </r>
       <r>  -51.2971    1.0000 </r>
       <r>  -51.2954    1.0000 </r>
       <r>  -51.2946    1.0000 </r>
       <r>  -50.1589    1.0000 </r>
       <r>  -50.1585    1.0000 </r>
       <r>  -50.1577    1.0000 </r>
       <r>  -50.1576    1.0000 </r>
       <r>  -50.1575    1.0000 </r>
       <r>  -50.1574    1.0000 </r>
       <r>  -50.1574    1.0000 </r>
       <r>  -50.1570    1.0000 </r>
       <r>  -50.1568    1.0000 </r>
       <r>  -50.1568    1.0000 </r>
       <r>  -50.1567    1.0000 </r>
       <r>  -50.1561    1.0000 </r>
       <r>  -50.0672    1.0000 </r>
       <r>  -50.0670    1.0000 </r>
       <r>  -50.0661    1.0000 </r>
       <r>  -50.0659    1.0000 </r>
       <r>  -50.0658    1.0000 </r>
       <r>  -50.0658    1.0000 </r>
       <r>  -50.0657    1.0000 </r>
       <r>  -50.0657    1.0000 </r>
       <r>  -50.0656    1.0000 </r>
       <r>  -50.0652    1.0000 </r>
       <r>  -50.0650    1.0000 </r>
       <r>  -50.0648    1.0000 </r>
       <r>  -49.9629    1.0000 </r>
       <r>  -49.9619    1.0000 </r>
       <r>  -49.9618    1.0000 </r>
       <r>  -49.9617    1.0000 </r>
       <r>  -49.9617    1.0000 </r>
       <r>  -49.9616    1.0000 </r>
       <r>  -49.9616    1.0000 </r>
       <r>  -49.9615    1.0000 </r>
       <r>  -49.9615    1.0000 </r>
       <r>  -49.9614    1.0000 </r>
       <r>  -49.9614    1.0000 </r>
       <r>  -49.9612    1.0000 </r>
       <r>  -49.9541    1.0000 </r>
       <r>  -49.9527    1.0000 </r>
       <r>  -49.9526    1.0000 </r>
       <r>  -49.9526    1.0000 </r>
       <r>  -49.9525    1.0000 </r>
       <r>  -49.9525    1.0000 </r>
       <r>  -49.9524    1.0000 </r>
       <r>  -49.9524    1.0000 </r>
       <r>  -49.9524    1.0000 </r>
       <r>  -49.9523    1.0000 </r>
       <r>  -49.9522    1.0000 </r>
       <r>  -49.9520    1.0000 </r>
       <r>  -49.8898    1.0000 </r>
       <r>  -49.8889    1.0000 </r>
       <r>  -49.8888    1.0000 </r>
       <r>  -49.8888    1.0000 </r>
       <r>  -49.8887    1.0000 </r>
       <r>  -49.8887    1.0000 </r>
       <r>  -49.8887    1.0000 </r>
       <r>  -49.8887    1.0000 </r>
       <r>  -49.8886    1.0000 </r>
       <r>  -49.8885    1.0000 </r>
       <r>  -49.8868    1.0000 </r>
       <r>  -49.8862    1.0000 </r>
       <r>  -49.8483    1.0000 </r>
[...]
       <r>   -32.5885     0.0000   156.0000 </r>
       <r>   -32.3489     0.0000   156.0000 </r>
       <r>   -32.1093     0.0000   156.0000 </r>
       <r>   -31.8697     0.0000   156.0000 </r>
       <r>   -31.6302     0.0000   156.0000 </r>
       <r>   -31.3906     0.0000   156.0000 </r>
       <r>   -31.1510     0.0000   156.0000 </r>
       <r>   -30.9114     0.0000   156.0000 </r>
       <r>   -30.6718     0.0000   156.0000 </r>
       <r>   -30.4322     0.0000   156.0000 </r>
       <r>   -30.1926     0.0000   156.0000 </r>
       <r>   -29.9530     0.0000   156.0000 </r>
       <r>   -29.7134     0.0000   156.0000 </r>
       <r>   -29.4738     0.0000   156.0000 </r>
       <r>   -29.2342     0.0000   156.0000 </r>
       <r>   -28.9946     0.0000   156.0000 </r>
       <r>   -28.7550     0.0000   156.0000 </r>
       <r>   -28.5154     0.0000   156.0000 </r>
       <r>   -28.2758     0.0000   156.0000 </r>
       <r>   -28.0362     0.0000   156.0000 </r>
       <r>   -27.7966     0.0000   156.0000 </r>
       <r>   -27.5570     0.0000   156.0000 </r>
       <r>   -27.3174     0.0000   156.0000 </r>
       <r>   -27.0778     0.0000   156.0000 </r>
       <r>   -26.8382     0.0000   156.0000 </r>
       <r>   -26.5986     0.0000   156.0000 </r>
       <r>   -26.3590     0.0000   156.0000 </r>
       <r>   -26.1194     0.0000   156.0000 </r>
       <r>   -25.8798     0.0000   156.0000 </r>
       <r>   -25.6402     0.0000   156.0000 </r>
       <r>   -25.4006     0.0000   156.0000 </r>
       <r>   -25.1610     0.0000   156.0000 </r>
       <r>   -24.9214     0.0000   156.0000 </r>
       <r>   -24.6818     0.0000   156.0000 </r>
       <r>   -24.4422     0.0000   156.0000 </r>
       <r>   -24.2026     0.0000   156.0000 </r>
       <r>   -23.9630     0.0000   156.0000 </r>
       <r>   -23.7234     0.0000   156.0000 </r>
       <r>   -23.4838     0.0000   156.0000 </r>
       <r>   -23.2442     0.0000   156.0000 </r>
       <r>   -23.0046     0.0000   156.0000 </r>
       <r>   -22.7650     0.0000   156.0000 </r>
       <r>   -22.5254     0.0000   156.0000 </r>
       <r>   -22.2858     0.0000   156.0000 </r>
       <r>   -22.0462     0.0000   156.0000 </r>
       <r>   -21.8066     0.0000   156.0000 </r>
       <r>   -21.5670     0.0000   156.0000 </r>
       <r>   -21.3274     0.0000   156.0000 </r>
       <r>   -21.0878     0.0000   156.0000 </r>
       <r>   -20.8482     0.0000   156.0000 </r>
       <r>   -20.6086     0.0000   156.0000 </r>
       <r>   -20.3690     0.0000   156.0000 </r>
       <r>   -20.1294     0.0000   156.0000 </r>
       <r>   -19.8898     0.0000   156.0000 </r>
       <r>   -19.6502     0.0000   156.0000 </r>
       <r>   -19.4106     0.0000   156.0000 </r>
       <r>   -19.1710     0.0000   156.0000 </r>
       <r>   -18.9314     0.0000   156.0000 </r>
       <r>   -18.6918     0.0000   156.0000 </r>
       <r>   -18.4522     0.0000   156.0000 </r>
       <r>   -18.2126     0.0000   156.0000 </r>
       <r>   -17.9730     0.0000   156.0000 </r>
       <r>   -17.7334     0.0000   156.0000 </r>
       <r>   -17.4938     0.0000   156.0000 </r>
       <r>   -17.2542     0.0000   156.0000 </r>
       <r>   -17.0146     0.0000   156.0000 </r>
       <r>   -16.7750     0.0000   156.0000 </r>
       <r>   -16.5354     0.0000   156.0000 </r>
       <r>   -16.2958     0.0000   156.0000 </r>
       <r>   -16.0562     0.0000   156.0000 </r>
       <r>   -15.8166     0.0000   156.0000 </r>
       <r>   -15.5770     0.0000   156.0000 </r>
       <r>   -15.3374     0.0000   156.0000 </r>
       <r>   -15.0978     0.0000   156.0000 </r>
       <r>   -14.8582     0.0000   156.0000 </r>
       <r>   -14.6186     0.0000   156.0000 </r>
       <r>   -14.3790     0.0000   156.0000 </r>
       <r>   -14.1394     0.0000   156.0000 </r>
       <r>   -13.8998     0.0000   156.0000 </r>
       <r>   -13.6602     0.0000   156.0000 </r>
       <r>   -13.4206     1.7625   156.4223 </r>
       <r>   -13.1810    44.4484   167.0721 </r>
       <r>   -12.9414     4.5447   168.1610 </r>
       <r>   -12.7018    41.9098   178.2025 </r>
       <r>   -12.4622     7.5019   180.0000 </r>
       <r>   -12.2226     0.0000   180.0000 </r>
       <r>   -11.9830     0.0000   180.0000 </r>
       <r>   -11.7434     0.0000   180.0000 </r>
       <r>   -11.5038     0.0000   180.0000 </r>
       <r>   -11.2642     0.0000   180.0000 </r>
       <r>   -11.0246     0.0000   180.0000 </r>
       <r>   -10.7850     0.0000   180.0000 </r>
       <r>   -10.5454     0.0000   180.0000 </r>
       <r>   -10.3058     0.0000   180.0000 </r>
       <r>   -10.0662     0.0000   180.0000 </r>
       <r>    -9.8266     0.0000   180.0000 </r>
       <r>    -9.5870     0.0000   180.0000 </r>
       <r>    -9.3474     0.0000   180.0000 </r>
       <r>    -9.1078     0.0000   180.0000 </r>
       <r>    -8.8682     0.0000   180.0000 </r>
       <r>    -8.6286     0.0000   180.0000 </r>
       <r>    -8.3890     0.0000   180.0000 </r>
       <r>    -8.1495     0.0000   180.0000 </r>
       <r>    -7.9099     0.0000   180.0000 </r>
       <r>    -7.6703     0.0168   180.0040 </r>
       <r>    -7.4307    11.9675   182.8714 </r>
       <r>    -7.1911    28.5320   189.7077 </r>
       <r>    -6.9515    59.8867   204.0564 </r>
       <r>    -6.7119    46.5006   215.1980 </r>
       <r>    -6.4723     3.3475   216.0000 </r>
       <r>    -6.2327     0.0000   216.0000 </r>
       <r>    -5.9931     0.0000   216.0000 </r>
       <r>    -5.7535     0.0000   216.0000 </r>
       <r>    -5.5139     0.0000   216.0000 </r>
       <r>    -5.2743     0.0000   216.0000 </r>
       <r>    -5.0347     0.0000   216.0000 </r>
       <r>    -4.7951     0.0000   216.0000 </r>
       <r>    -4.5555     0.0000   216.0000 </r>
       <r>    -4.3159     0.0000   216.0000 </r>
       <r>    -4.0763     0.0000   216.0000 </r>
       <r>    -3.8367     0.0000   216.0000 </r>
       <r>    -3.5971     0.0000   216.0000 </r>
       <r>    -3.3575     0.0000   216.0000 </r>
       <r>    -3.1179     0.0000   216.0000 </r>
       <r>    -2.8783     0.0000   216.0000 </r>
       <r>    -2.6387     0.0000   216.0000 </r>
       <r>    -2.3991     0.0000   216.0000 </r>
       <r>    -2.1595     0.0000   216.0000 </r>
       <r>    -1.9199     0.0000   216.0000 </r>
       <r>    -1.6803     0.0000   216.0000 </r>
       <r>    -1.4407     0.0000   216.0000 </r>
       <r>    -1.2011     0.0855   216.0205 </r>
       <r>    -0.9615     4.4107   217.0773 </r>
       <r>    -0.7219    14.0551   220.4449 </r>
       <r>    -0.4823    15.2936   224.1092 </r>
       <r>    -0.2427    19.5453   228.7922 </r>
       <r>    -0.0031    41.2861   238.6843 </r>
       <r>     0.2365    33.9344   246.8150 </r>
       <r>     0.4761    42.1166   256.9061 </r>
       <r>     0.7157    33.7042   264.9816 </r>
       <r>     0.9553    52.8516   277.6448 </r>
       <r>     1.1949    60.5333   292.1485 </r>
       <r>     1.4345    44.4350   302.7951 </r>
       <r>     1.6741    40.0894   312.4004 </r>
       <r>     1.9137    38.4490   321.6128 </r>
       <r>     2.1533    37.4063   330.5753 </r>
       <r>     2.3929    38.2756   339.7461 </r>
       <r>     2.6325    49.3622   351.5732 </r>
       <r>     2.8721    62.9011   366.6443 </r>
       <r>     3.1117    58.7494   380.7205 </r>
       <r>     3.3513    48.0501   392.2333 </r>
       <r>     3.5909    29.9137   399.4006 </r>
       <r>     3.8305    61.2236   414.0697 </r>
       <r>     4.0701    73.4534   431.6691 </r>
       <r>     4.3097     1.3811   432.0000 </r>
       <r>     4.5493     0.0000   432.0000 </r>
       <r>     4.7889     0.0000   432.0000 </r>
       <r>     5.0285     0.0000   432.0000 </r>
       <r>     5.2681     0.0000   432.0000 </r>
       <r>     5.5077     0.0000   432.0000 </r>
       <r>     5.7473     0.0000   432.0000 </r>
       <r>     5.9869     0.0000   432.0000 </r>
       <r>     6.2265     0.1434   432.0343 </r>
       <r>     6.4661     8.1288   433.9820 </r>
       <r>     6.7057    30.2321   441.2256 </r>
       <r>     6.9453    43.3619   451.6150 </r>
       <r>     7.1849    73.1414   469.1396 </r>
       <r>     7.4245    80.8403   488.5089 </r>
       <r>     7.6641    65.3895   504.1762 </r>
       <r>     7.9037    87.8929   525.2352 </r>
       <r>     8.1433    71.3373   542.3275 </r>
       <r>     8.3829    54.4493   555.3735 </r>
       <r>     8.6225    37.1947   564.2854 </r>
       <r>     8.8621    39.2039   573.6786 </r>
       <r>     9.1017    19.3950   578.3256 </r>
       <r>     9.3413    13.8778   581.6507 </r>
       <r>     9.5809    20.5857   586.5830 </r>
       <r>     9.8205    29.9875   593.7680 </r>
       <r>    10.0601    26.5531   600.1301 </r>
       <r>    10.2997    34.7032   608.4449 </r>
       <r>    10.5393    35.4736   616.9443 </r>
       <r>    10.7789    27.9235   623.6348 </r>
       <r>    11.0185    22.4762   629.0201 </r>
       <r>    11.2581    21.5722   634.1887 </r>
       <r>    11.4977    32.2952   641.9266 </r>
       <r>    11.7373    38.7481   651.2106 </r>
       <r>    11.9769    42.5726   661.4110 </r>
       <r>    12.2165    51.9416   673.8562 </r>
       <r>    12.4561    46.8313   685.0769 </r>
       <r>    12.6957    35.9749   693.6964 </r>
       <r>    12.9353    41.2624   703.5829 </r>
       <r>    13.1749    39.7709   713.1119 </r>
       <r>    13.4145    34.2013   721.3065 </r>
       <r>    13.6541    24.0403   727.0666 </r>
       <r>    13.8937     3.8957   728.0000 </r>
       <r>    14.1333     0.0000   728.0000 </r>
       <r>    14.3729     0.0000   728.0000 </r>
       <r>    14.6125     0.0000   728.0000 </r>
       <r>    14.8521     0.0000   728.0000 </r>
       <r>    15.0917     0.0000   728.0000 </r>
       <r>    15.3313     0.0000   728.0000 </r>
       <r>    15.5708     0.0000   728.0000 </r>
       <r>    15.8104     0.0000   728.0000 </r>
       <r>    16.0500     0.0000   728.0000 </r>
       <r>    16.2896     0.0000   728.0000 </r>
       <r>    16.5292     0.0000   728.0000 </r>
       <r>    16.7688     0.0000   728.0000 </r>
       <r>    17.0084     0.0000   728.0000 </r>
      </set>
     </set>
    </array>
   </total>
  </dos>
 </calculation>
 <structure name="finalpos" >
  <crystal>
   <varray name="basis" >
    <v>      15.21162830       0.00516956      -2.78361592 </v>
    <v>      -0.40798665      11.93565774      -2.20735884 </v>
    <v>      -0.06175567      -0.11168197      10.54442638 </v>
   </varray>
   <i name="volume">   1908.54869108 </i>
   <varray name="rec_basis" >
    <v>       0.06581343       0.00232549       0.00041008 </v>
    <v>       0.00013433       0.08395174       0.00088997 </v>
    <v>       0.01740216       0.01818827       0.09513139 </v>
   </varray>
  </crystal>
  <varray name="positions" >
   <v>       0.47527516       0.00074367       0.00446200 </v>
   <v>       0.97527516       0.00074367       0.00446200 </v>
   <v>       0.47527516       0.33407700       0.00446200 </v>
   <v>       0.97527516       0.33407700       0.00446200 </v>
   <v>       0.47527516       0.66741034       0.00446200 </v>
   <v>       0.97527516       0.66741034       0.00446200 </v>
   <v>       0.27472484       0.33258966       0.99553800 </v>
   <v>       0.77472484       0.33258966       0.99553800 </v>
   <v>       0.27472484       0.66592300       0.99553800 </v>
   <v>       0.77472484       0.66592300       0.99553800 </v>
   <v>       0.27472484       0.99925633       0.99553800 </v>
   <v>       0.77472484       0.99925633       0.99553800 </v>
   <v>       0.17788805       0.26797179       0.60688244 </v>
   <v>       0.67788805       0.26797179       0.60783074 </v>
   <v>       0.17788805       0.60130513       0.60783074 </v>
   <v>       0.67788805       0.60130513       0.60783074 </v>
   <v>       0.17788805       0.93463846       0.60783074 </v>
   <v>       0.67788805       0.93463846       0.60783074 </v>
   <v>       0.07211195       0.06536154       0.39216926 </v>
   <v>       0.57211195       0.06536154       0.39216926 </v>
   <v>       0.07211195       0.39869487       0.39216926 </v>
   <v>       0.57211195       0.39869487       0.39216926 </v>
   <v>       0.07211195       0.73202821       0.39216926 </v>
   <v>       0.57211195       0.73202821       0.39216926 </v>
   <v>       0.10733875       0.30765571       0.84593428 </v>
   <v>       0.60733875       0.30765571       0.84593428 </v>
   <v>       0.10733875       0.64098905       0.84593428 </v>
   <v>       0.60733875       0.64098905       0.84593428 </v>
   <v>       0.10733875       0.97432238       0.84593428 </v>
   <v>       0.60733875       0.97432238       0.84593428 </v>
   <v>       0.34464416       0.29539312       0.77235872 </v>
   <v>       0.84464416       0.29539312       0.77235872 </v>
   <v>       0.34464416       0.62872645       0.77235872 </v>
   <v>       0.84464416       0.62872645       0.77235872 </v>
   <v>       0.34464416       0.96205979       0.77235872 </v>
   <v>       0.84464416       0.96205979       0.77235872 </v>
   <v>       0.14266125       0.02567762       0.15406572 </v>
   <v>       0.64266125       0.02567762       0.15406572 </v>
   <v>       0.14266125       0.35901095       0.15406572 </v>
   <v>       0.64266125       0.35901095       0.15406572 </v>
   <v>       0.14266125       0.69234429       0.15406572 </v>
   <v>       0.64266125       0.69234429       0.15406572 </v>
   <v>       0.40535584       0.03794021       0.22764128 </v>
   <v>       0.90535584       0.03794021       0.22764128 </v>
   <v>       0.40535584       0.37127355       0.22764128 </v>
   <v>       0.90535584       0.37127355       0.22764128 </v>
   <v>       0.40535584       0.70460688       0.22764128 </v>
   <v>       0.90535584       0.70460688       0.22764128 </v>
   <v>       0.46517249       0.26691416       0.60148498 </v>
   <v>       0.96517249       0.26691416       0.60148498 </v>
   <v>       0.46517249       0.60024750       0.60148498 </v>
   <v>       0.96517249       0.60024750       0.60148498 </v>
   <v>       0.46517249       0.93358083       0.60148498 </v>
   <v>       0.96517249       0.93358083       0.60148498 </v>
   <v>       0.28482751       0.06641917       0.39851502 </v>
   <v>       0.78482751       0.06641917       0.39851502 </v>
   <v>       0.28482751       0.39975250       0.39851502 </v>
   <v>       0.78482751       0.39975250       0.39851502 </v>
   <v>       0.28482751       0.73308584       0.39851502 </v>
   <v>       0.78482751       0.73308584       0.39851502 </v>
   <v>       0.22447416       0.13353711       0.80122268 </v>
   <v>       0.72447416       0.13353711       0.80122268 </v>
   <v>       0.22447416       0.46687045       0.80122268 </v>
   <v>       0.72447416       0.46687045       0.80122268 </v>
   <v>       0.22447416       0.80020378       0.80122268 </v>
   <v>       0.72447416       0.80020378       0.80122268 </v>
   <v>       0.47796479       0.13582521       0.81495126 </v>
   <v>       0.97796479       0.13582521       0.81495126 </v>
   <v>       0.47796479       0.46915854       0.81495126 </v>
   <v>       0.97796479       0.46915854       0.81495126 </v>
   <v>       0.47796479       0.80249188       0.81495126 </v>
   <v>       0.97796479       0.80249188       0.81495126 </v>
   <v>       0.02552584       0.19979622       0.19877732 </v>
   <v>       0.52552584       0.19979622       0.19877732 </v>
   <v>       0.02552584       0.53312955       0.19877732 </v>
   <v>       0.52552584       0.53312955       0.19877732 </v>
   <v>       0.02552584       0.86646289       0.19877732 </v>
   <v>       0.52552584       0.86646289       0.19877732 </v>
   <v>       0.27203521       0.19750812       0.18504874 </v>
   <v>       0.77203521       0.19750812       0.18504874 </v>
   <v>       0.27203521       0.53084146       0.18504874 </v>
   <v>       0.77203521       0.53084146       0.18504874 </v>
   <v>       0.27203521       0.86417479       0.18504874 </v>
   <v>       0.77203521       0.86417479       0.18504874 </v>
   <v>       0.12500000       0.16666667       0.00000000 </v>
   <v>       0.62500000       0.16666667       0.00000000 </v>
   <v>       0.12500000       0.50000000       0.00000000 </v>
   <v>       0.62500000       0.50000000       0.00000000 </v>
   <v>       0.12500000       0.83333333       0.00000000 </v>
   <v>       0.62500000       0.83333333       0.00000000 </v>
   <v>       0.37500000       0.16666667       0.00000000 </v>
   <v>       0.87500000       0.16666667       0.00000000 </v>
   <v>       0.37500000       0.50000000       0.00000000 </v>
   <v>       0.87500000       0.50000000       0.00000000 </v>
   <v>       0.37500000       0.83333333       0.00000000 </v>
   <v>       0.87500000       0.83333333       0.00000000 </v>
   <v>       0.17614737       0.22809805       0.36858830 </v>
   <v>       0.67614737       0.22809805       0.36858830 </v>
   <v>       0.17614737       0.56143138       0.36858830 </v>
   <v>       0.67614737       0.56143138       0.36858830 </v>
   <v>       0.17614737       0.89476472       0.36858830 </v>
   <v>       0.67614737       0.89476472       0.36858830 </v>
   <v>       0.41542106       0.22793643       0.36761855 </v>
   <v>       0.91542106       0.22793643       0.36761855 </v>
   <v>       0.41542106       0.56126976       0.36761855 </v>
   <v>       0.91542106       0.56126976       0.36761855 </v>
   <v>       0.41542106       0.89460309       0.36761855 </v>
   <v>       0.91542106       0.89460309       0.36761855 </v>
   <v>       0.07385263       0.10523528       0.63141170 </v>
   <v>       0.57385263       0.10523528       0.63141170 </v>
   <v>       0.07385263       0.43856862       0.63141170 </v>
   <v>       0.57385263       0.43856862       0.63141170 </v>
   <v>       0.07385263       0.77190195       0.63141170 </v>
   <v>       0.57385263       0.77190195       0.63141170 </v>
   <v>       0.33457894       0.10539691       0.63238145 </v>
   <v>       0.83457894       0.10539691       0.63238145 </v>
   <v>       0.33457894       0.43873024       0.63238145 </v>
   <v>       0.83457894       0.43873024       0.63238145 </v>
   <v>       0.33457894       0.77206357       0.63238145 </v>
   <v>       0.83457894       0.77206357       0.63238145 </v>
   <v>       0.22527003       0.30093342       0.80560053 </v>
   <v>       0.72527003       0.30093342       0.80560053 </v>
   <v>       0.22527003       0.63426676       0.80560053 </v>
   <v>       0.72527003       0.63426676       0.80560053 </v>
   <v>       0.22527003       0.96760009       0.80560053 </v>
   <v>       0.72527003       0.96760009       0.80560053 </v>
   <v>       0.47618324       0.30143353       0.80860116 </v>
   <v>       0.97618324       0.30143353       0.80860116 </v>
   <v>       0.47618324       0.63476686       0.80860116 </v>
   <v>       0.97618324       0.63476686       0.80860116 </v>
   <v>       0.47618324       0.96810019       0.80860116 </v>
   <v>       0.97618324       0.96810019       0.80860116 </v>
   <v>       0.02472997       0.03239991       0.19439947 </v>
   <v>       0.52472997       0.03239991       0.19439947 </v>
   <v>       0.02472997       0.36573324       0.19439947 </v>
   <v>       0.52472997       0.36573324       0.19439947 </v>
   <v>       0.02472997       0.69906658       0.19439947 </v>
   <v>       0.52472997       0.69906658       0.19439947 </v>
   <v>       0.27381676       0.03189981       0.19139884 </v>
   <v>       0.77381676       0.03189981       0.19139884 </v>
   <v>       0.27381676       0.36523314       0.19139884 </v>
   <v>       0.77381676       0.36523314       0.19139884 </v>
   <v>       0.27381676       0.69856647       0.19139884 </v>
   <v>       0.77381676       0.69856647       0.19139884 </v>
  </varray>
 </structure>
</modeling>
