 144 144   0   0
  0.1325381E+02  0.1546422E-08  0.1214491E-08  0.1054520E-08  0.5000000E-15
  1.000000000000000E-004
  CAR 
 unknown system                          
     17.01054826    -54.87005727  301      5.09034784      1.00000000
    -54.870  0.0000E+00  0.0000E+00  0.0000E+00  0.0000E+00
    -54.630  0.0000E+00  0.0000E+00  0.0000E+00  0.0000E+00
    -54.391  0.0000E+00  0.0000E+00  0.0000E+00  0.0000E+00
    -54.151  0.0000E+00  0.0000E+00  0.0000E+00  0.0000E+00
    -53.912  0.0000E+00  0.0000E+00  0.0000E+00  0.0000E+00
    -53.672  0.0000E+00  0.0000E+00  0.0000E+00  0.0000E+00
    -53.432  0.0000E+00  0.0000E+00  0.0000E+00  0.0000E+00
    -53.193  0.0000E+00  0.0000E+00  0.0000E+00  0.0000E+00
    -52.953  0.0000E+00  0.0000E+00  0.0000E+00  0.0000E+00
    -52.714  0.0000E+00  0.0000E+00  0.0000E+00  0.0000E+00
    -52.474  0.0000E+00  0.0000E+00  0.0000E+00  0.0000E+00
    -52.234  0.0000E+00  0.0000E+00  0.0000E+00  0.0000E+00
    -51.995  0.0000E+00  0.0000E+00  0.0000E+00  0.0000E+00
    -51.755  0.3689E-03  0.0000E+00  0.8838E-04  0.0000E+00
    -51.516  0.4986E+02  0.0000E+00  0.1195E+02  0.0000E+00
    -51.276  0.8692E+02  0.0000E+00  0.3277E+02  0.0000E+00
    -51.036  0.1347E+02  0.0000E+00  0.3600E+02  0.0000E+00
    -50.797  0.0000E+00  0.0000E+00  0.3600E+02  0.0000E+00
    -50.557  0.0000E+00  0.0000E+00  0.3600E+02  0.0000E+00
    -50.318  0.1332E-03  0.0000E+00  0.3600E+02  0.0000E+00
    -50.078  0.6735E+02  0.0000E+00  0.5214E+02  0.0000E+00
    -49.838  0.2091E+03  0.0000E+00  0.1022E+03  0.0000E+00
    -49.599  0.2400E+02  0.0000E+00  0.1080E+03  0.0000E+00
    -49.359  0.0000E+00  0.0000E+00  0.1080E+03  0.0000E+00
    -49.120  0.0000E+00  0.0000E+00  0.1080E+03  0.0000E+00
    -48.880  0.0000E+00  0.0000E+00  0.1080E+03  0.0000E+00
    -48.640  0.0000E+00  0.0000E+00  0.1080E+03  0.0000E+00
    -48.401  0.0000E+00  0.0000E+00  0.1080E+03  0.0000E+00
    -48.161  0.0000E+00  0.0000E+00  0.1080E+03  0.0000E+00
    -47.922  0.0000E+00  0.0000E+00  0.1080E+03  0.0000E+00
    -47.682  0.0000E+00  0.0000E+00  0.1080E+03  0.0000E+00
    -47.442  0.0000E+00  0.0000E+00  0.1080E+03  0.0000E+00
    -47.203  0.0000E+00  0.0000E+00  0.1080E+03  0.0000E+00
    -46.963  0.0000E+00  0.6774E-01  0.1080E+03  0.1623E-01
    -46.724  0.0000E+00  0.5100E+02  0.1080E+03  0.1224E+02
    -46.484  0.0000E+00  0.9568E+02  0.1080E+03  0.3516E+02
    -46.244  0.0000E+00  0.1469E+03  0.1080E+03  0.7037E+02
    -46.005  0.0000E+00  0.1570E+03  0.1080E+03  0.1080E+03
    -45.765  0.0000E+00  0.3957E-02  0.1080E+03  0.1080E+03
    -45.526  0.0000E+00  0.0000E+00  0.1080E+03  0.1080E+03
    -45.286  0.0000E+00  0.0000E+00  0.1080E+03  0.1080E+03
    -45.046  0.0000E+00  0.0000E+00  0.1080E+03  0.1080E+03
    -44.807  0.0000E+00  0.0000E+00  0.1080E+03  0.1080E+03
    -44.567  0.0000E+00  0.0000E+00  0.1080E+03  0.1080E+03
    -44.328  0.0000E+00  0.0000E+00  0.1080E+03  0.1080E+03
    -44.088  0.0000E+00  0.0000E+00  0.1080E+03  0.1080E+03
    -43.848  0.0000E+00  0.0000E+00  0.1080E+03  0.1080E+03
    -43.609  0.0000E+00  0.0000E+00  0.1080E+03  0.1080E+03
    -43.369  0.0000E+00  0.0000E+00  0.1080E+03  0.1080E+03
    -43.130  0.0000E+00  0.0000E+00  0.1080E+03  0.1080E+03
    -42.890  0.0000E+00  0.0000E+00  0.1080E+03  0.1080E+03
    -42.650  0.0000E+00  0.0000E+00  0.1080E+03  0.1080E+03
    -42.411  0.0000E+00  0.0000E+00  0.1080E+03  0.1080E+03
    -42.171  0.0000E+00  0.0000E+00  0.1080E+03  0.1080E+03
    -41.932  0.0000E+00  0.0000E+00  0.1080E+03  0.1080E+03
    -41.692  0.0000E+00  0.0000E+00  0.1080E+03  0.1080E+03
    -41.452  0.0000E+00  0.0000E+00  0.1080E+03  0.1080E+03
    -41.213  0.0000E+00  0.0000E+00  0.1080E+03  0.1080E+03
    -40.973  0.0000E+00  0.0000E+00  0.1080E+03  0.1080E+03
    -40.734  0.1364E-08  0.4415E-09  0.1080E+03  0.1080E+03
    -40.494  0.2923E+02  0.2595E+02  0.1150E+03  0.1142E+03
    -40.254  0.4711E+02  0.5067E+02  0.1263E+03  0.1264E+03
    -40.015  0.9974E+02  0.9971E+02  0.1502E+03  0.1502E+03
    -39.775  0.2425E+02  0.2401E+02  0.1560E+03  0.1560E+03
    -39.536  0.0000E+00  0.0000E+00  0.1560E+03  0.1560E+03
    -39.296  0.0000E+00  0.0000E+00  0.1560E+03  0.1560E+03
    -39.056  0.0000E+00  0.0000E+00  0.1560E+03  0.1560E+03
    -38.817  0.0000E+00  0.0000E+00  0.1560E+03  0.1560E+03
    -38.577  0.0000E+00  0.0000E+00  0.1560E+03  0.1560E+03
    -38.338  0.0000E+00  0.0000E+00  0.1560E+03  0.1560E+03
    -38.098  0.0000E+00  0.0000E+00  0.1560E+03  0.1560E+03
    -37.858  0.0000E+00  0.0000E+00  0.1560E+03  0.1560E+03
    -37.619  0.0000E+00  0.0000E+00  0.1560E+03  0.1560E+03
    -37.379  0.0000E+00  0.0000E+00  0.1560E+03  0.1560E+03
    -37.140  0.0000E+00  0.0000E+00  0.1560E+03  0.1560E+03
    -36.900  0.0000E+00  0.0000E+00  0.1560E+03  0.1560E+03
    -36.660  0.0000E+00  0.0000E+00  0.1560E+03  0.1560E+03
    -36.421  0.0000E+00  0.0000E+00  0.1560E+03  0.1560E+03
    -36.181  0.0000E+00  0.0000E+00  0.1560E+03  0.1560E+03
    -35.941  0.0000E+00  0.0000E+00  0.1560E+03  0.1560E+03
    -35.702  0.0000E+00  0.0000E+00  0.1560E+03  0.1560E+03
    -35.462  0.0000E+00  0.0000E+00  0.1560E+03  0.1560E+03
    -35.223  0.0000E+00  0.0000E+00  0.1560E+03  0.1560E+03
    -34.983  0.0000E+00  0.0000E+00  0.1560E+03  0.1560E+03
    -34.743  0.0000E+00  0.0000E+00  0.1560E+03  0.1560E+03
    -34.504  0.0000E+00  0.0000E+00  0.1560E+03  0.1560E+03
    -34.264  0.0000E+00  0.0000E+00  0.1560E+03  0.1560E+03
    -34.025  0.0000E+00  0.0000E+00  0.1560E+03  0.1560E+03
    -33.785  0.0000E+00  0.0000E+00  0.1560E+03  0.1560E+03
    -33.545  0.0000E+00  0.0000E+00  0.1560E+03  0.1560E+03
    -33.306  0.0000E+00  0.0000E+00  0.1560E+03  0.1560E+03
    -33.066  0.0000E+00  0.0000E+00  0.1560E+03  0.1560E+03
    -32.827  0.0000E+00  0.0000E+00  0.1560E+03  0.1560E+03
    -32.587  0.0000E+00  0.0000E+00  0.1560E+03  0.1560E+03
    -32.347  0.0000E+00  0.0000E+00  0.1560E+03  0.1560E+03
    -32.108  0.0000E+00  0.0000E+00  0.1560E+03  0.1560E+03
    -31.868  0.0000E+00  0.0000E+00  0.1560E+03  0.1560E+03
    -31.629  0.0000E+00  0.0000E+00  0.1560E+03  0.1560E+03
    -31.389  0.0000E+00  0.0000E+00  0.1560E+03  0.1560E+03
    -31.149  0.0000E+00  0.0000E+00  0.1560E+03  0.1560E+03
    -30.910  0.0000E+00  0.0000E+00  0.1560E+03  0.1560E+03
    -30.670  0.0000E+00  0.0000E+00  0.1560E+03  0.1560E+03
    -30.431  0.0000E+00  0.0000E+00  0.1560E+03  0.1560E+03
    -30.191  0.0000E+00  0.0000E+00  0.1560E+03  0.1560E+03
    -29.951  0.0000E+00  0.0000E+00  0.1560E+03  0.1560E+03
    -29.712  0.0000E+00  0.0000E+00  0.1560E+03  0.1560E+03
    -29.472  0.0000E+00  0.0000E+00  0.1560E+03  0.1560E+03
    -29.233  0.0000E+00  0.0000E+00  0.1560E+03  0.1560E+03
    -28.993  0.0000E+00  0.0000E+00  0.1560E+03  0.1560E+03
    -28.753  0.0000E+00  0.0000E+00  0.1560E+03  0.1560E+03
    -28.514  0.0000E+00  0.0000E+00  0.1560E+03  0.1560E+03
    -28.274  0.0000E+00  0.0000E+00  0.1560E+03  0.1560E+03
    -28.035  0.0000E+00  0.0000E+00  0.1560E+03  0.1560E+03
    -27.795  0.0000E+00  0.0000E+00  0.1560E+03  0.1560E+03
    -27.555  0.0000E+00  0.0000E+00  0.1560E+03  0.1560E+03
    -27.316  0.0000E+00  0.0000E+00  0.1560E+03  0.1560E+03
    -27.076  0.0000E+00  0.0000E+00  0.1560E+03  0.1560E+03
    -26.837  0.0000E+00  0.0000E+00  0.1560E+03  0.1560E+03
    -26.597  0.0000E+00  0.0000E+00  0.1560E+03  0.1560E+03
    -26.357  0.0000E+00  0.0000E+00  0.1560E+03  0.1560E+03
    -26.118  0.0000E+00  0.0000E+00  0.1560E+03  0.1560E+03
    -25.878  0.0000E+00  0.0000E+00  0.1560E+03  0.1560E+03
    -25.639  0.0000E+00  0.0000E+00  0.1560E+03  0.1560E+03
    -25.399  0.0000E+00  0.0000E+00  0.1560E+03  0.1560E+03
    -25.159  0.0000E+00  0.0000E+00  0.1560E+03  0.1560E+03
    -24.920  0.0000E+00  0.0000E+00  0.1560E+03  0.1560E+03
    -24.680  0.0000E+00  0.0000E+00  0.1560E+03  0.1560E+03
    -24.441  0.0000E+00  0.0000E+00  0.1560E+03  0.1560E+03
    -24.201  0.0000E+00  0.0000E+00  0.1560E+03  0.1560E+03
    -23.961  0.0000E+00  0.0000E+00  0.1560E+03  0.1560E+03
    -23.722  0.0000E+00  0.0000E+00  0.1560E+03  0.1560E+03
    -23.482  0.0000E+00  0.0000E+00  0.1560E+03  0.1560E+03
    -23.243  0.0000E+00  0.0000E+00  0.1560E+03  0.1560E+03
    -23.003  0.0000E+00  0.0000E+00  0.1560E+03  0.1560E+03
    -22.763  0.0000E+00  0.0000E+00  0.1560E+03  0.1560E+03
    -22.524  0.0000E+00  0.0000E+00  0.1560E+03  0.1560E+03
    -22.284  0.0000E+00  0.0000E+00  0.1560E+03  0.1560E+03
    -22.045  0.0000E+00  0.0000E+00  0.1560E+03  0.1560E+03
    -21.805  0.0000E+00  0.0000E+00  0.1560E+03  0.1560E+03
    -21.565  0.0000E+00  0.0000E+00  0.1560E+03  0.1560E+03
    -21.326  0.0000E+00  0.0000E+00  0.1560E+03  0.1560E+03
    -21.086  0.0000E+00  0.0000E+00  0.1560E+03  0.1560E+03
    -20.847  0.0000E+00  0.0000E+00  0.1560E+03  0.1560E+03
    -20.607  0.0000E+00  0.0000E+00  0.1560E+03  0.1560E+03
    -20.367  0.0000E+00  0.0000E+00  0.1560E+03  0.1560E+03
    -20.128  0.0000E+00  0.0000E+00  0.1560E+03  0.1560E+03
    -19.888  0.0000E+00  0.0000E+00  0.1560E+03  0.1560E+03
    -19.649  0.0000E+00  0.0000E+00  0.1560E+03  0.1560E+03
    -19.409  0.0000E+00  0.0000E+00  0.1560E+03  0.1560E+03
    -19.169  0.0000E+00  0.0000E+00  0.1560E+03  0.1560E+03
    -18.930  0.0000E+00  0.0000E+00  0.1560E+03  0.1560E+03
    -18.690  0.0000E+00  0.0000E+00  0.1560E+03  0.1560E+03
    -18.451  0.0000E+00  0.0000E+00  0.1560E+03  0.1560E+03
    -18.211  0.0000E+00  0.0000E+00  0.1560E+03  0.1560E+03
    -17.971  0.0000E+00  0.0000E+00  0.1560E+03  0.1560E+03
    -17.732  0.0000E+00  0.0000E+00  0.1560E+03  0.1560E+03
    -17.492  0.0000E+00  0.0000E+00  0.1560E+03  0.1560E+03
    -17.253  0.0000E+00  0.0000E+00  0.1560E+03  0.1560E+03
    -17.013  0.0000E+00  0.0000E+00  0.1560E+03  0.1560E+03
    -16.773  0.0000E+00  0.0000E+00  0.1560E+03  0.1560E+03
    -16.534  0.0000E+00  0.0000E+00  0.1560E+03  0.1560E+03
    -16.294  0.0000E+00  0.0000E+00  0.1560E+03  0.1560E+03
    -16.055  0.0000E+00  0.0000E+00  0.1560E+03  0.1560E+03
    -15.815  0.0000E+00  0.0000E+00  0.1560E+03  0.1560E+03
    -15.575  0.0000E+00  0.0000E+00  0.1560E+03  0.1560E+03
    -15.336  0.0000E+00  0.0000E+00  0.1560E+03  0.1560E+03
    -15.096  0.0000E+00  0.0000E+00  0.1560E+03  0.1560E+03
    -14.857  0.0000E+00  0.0000E+00  0.1560E+03  0.1560E+03
    -14.617  0.0000E+00  0.0000E+00  0.1560E+03  0.1560E+03
    -14.377  0.0000E+00  0.0000E+00  0.1560E+03  0.1560E+03
    -14.138  0.0000E+00  0.0000E+00  0.1560E+03  0.1560E+03
    -13.898  0.1423E-02  0.0000E+00  0.1560E+03  0.1560E+03
    -13.659  0.2235E+02  0.7533E-13  0.1614E+03  0.1560E+03
    -13.419  0.2756E+02  0.1901E+01  0.1680E+03  0.1565E+03
    -13.179  0.9217E+01  0.4453E+02  0.1702E+03  0.1671E+03
    -12.940  0.3143E+02  0.4436E+01  0.1777E+03  0.1682E+03
    -12.700  0.9609E+01  0.4231E+02  0.1800E+03  0.1783E+03
    -12.461  0.0000E+00  0.6985E+01  0.1800E+03  0.1800E+03
    -12.221  0.0000E+00  0.0000E+00  0.1800E+03  0.1800E+03
    -11.981  0.0000E+00  0.0000E+00  0.1800E+03  0.1800E+03
    -11.742  0.0000E+00  0.0000E+00  0.1800E+03  0.1800E+03
    -11.502  0.0000E+00  0.0000E+00  0.1800E+03  0.1800E+03
    -11.262  0.0000E+00  0.0000E+00  0.1800E+03  0.1800E+03
    -11.023  0.0000E+00  0.0000E+00  0.1800E+03  0.1800E+03
    -10.783  0.0000E+00  0.0000E+00  0.1800E+03  0.1800E+03
    -10.544  0.0000E+00  0.0000E+00  0.1800E+03  0.1800E+03
    -10.304  0.0000E+00  0.0000E+00  0.1800E+03  0.1800E+03
    -10.064  0.0000E+00  0.0000E+00  0.1800E+03  0.1800E+03
     -9.825  0.0000E+00  0.0000E+00  0.1800E+03  0.1800E+03
     -9.585  0.0000E+00  0.0000E+00  0.1800E+03  0.1800E+03
     -9.346  0.0000E+00  0.0000E+00  0.1800E+03  0.1800E+03
     -9.106  0.0000E+00  0.0000E+00  0.1800E+03  0.1800E+03
     -8.866  0.0000E+00  0.0000E+00  0.1800E+03  0.1800E+03
     -8.627  0.0000E+00  0.0000E+00  0.1800E+03  0.1800E+03
     -8.387  0.0000E+00  0.0000E+00  0.1800E+03  0.1800E+03
     -8.148  0.0000E+00  0.0000E+00  0.1800E+03  0.1800E+03
     -7.908  0.2412E-02  0.0000E+00  0.1800E+03  0.1800E+03
     -7.668  0.9464E+01  0.1782E-01  0.1823E+03  0.1800E+03
     -7.429  0.2324E+02  0.1205E+02  0.1878E+03  0.1829E+03
     -7.189  0.5597E+02  0.2883E+02  0.2012E+03  0.1898E+03
     -6.950  0.5779E+02  0.5996E+02  0.2151E+03  0.2042E+03
     -6.710  0.3780E+01  0.4620E+02  0.2160E+03  0.2152E+03
     -6.470  0.0000E+00  0.3187E+01  0.2160E+03  0.2160E+03
     -6.231  0.0000E+00  0.0000E+00  0.2160E+03  0.2160E+03
     -5.991  0.0000E+00  0.0000E+00  0.2160E+03  0.2160E+03
     -5.752  0.0000E+00  0.0000E+00  0.2160E+03  0.2160E+03
     -5.512  0.0000E+00  0.0000E+00  0.2160E+03  0.2160E+03
     -5.272  0.0000E+00  0.0000E+00  0.2160E+03  0.2160E+03
     -5.033  0.0000E+00  0.0000E+00  0.2160E+03  0.2160E+03
     -4.793  0.0000E+00  0.0000E+00  0.2160E+03  0.2160E+03
     -4.554  0.0000E+00  0.0000E+00  0.2160E+03  0.2160E+03
     -4.314  0.0000E+00  0.0000E+00  0.2160E+03  0.2160E+03
     -4.074  0.0000E+00  0.0000E+00  0.2160E+03  0.2160E+03
     -3.835  0.0000E+00  0.0000E+00  0.2160E+03  0.2160E+03
     -3.595  0.0000E+00  0.0000E+00  0.2160E+03  0.2160E+03
     -3.356  0.0000E+00  0.0000E+00  0.2160E+03  0.2160E+03
     -3.116  0.0000E+00  0.0000E+00  0.2160E+03  0.2160E+03
     -2.876  0.2278E-13  0.0000E+00  0.2160E+03  0.2160E+03
     -2.637  0.9059E+00  0.0000E+00  0.2162E+03  0.2160E+03
     -2.397  0.1023E+02  0.0000E+00  0.2187E+03  0.2160E+03
     -2.158  0.2062E+02  0.0000E+00  0.2236E+03  0.2160E+03
     -1.918  0.1736E+01  0.0000E+00  0.2240E+03  0.2160E+03
     -1.678  0.3471E+02  0.0000E+00  0.2323E+03  0.2160E+03
     -1.439  0.1964E+02  0.6436E-15  0.2370E+03  0.2160E+03
     -1.199  0.4417E+02  0.9452E-01  0.2476E+03  0.2160E+03
     -0.960  0.4977E+02  0.4426E+01  0.2596E+03  0.2171E+03
     -0.720  0.7511E+02  0.1416E+02  0.2775E+03  0.2205E+03
     -0.480  0.1034E+03  0.1536E+02  0.3023E+03  0.2242E+03
     -0.241  0.8560E+02  0.1968E+02  0.3228E+03  0.2289E+03
     -0.001  0.1104E+03  0.4122E+02  0.3493E+03  0.2387E+03
      0.238  0.6944E+02  0.3398E+02  0.3659E+03  0.2469E+03
      0.478  0.3813E+02  0.4221E+02  0.3751E+03  0.2570E+03
      0.718  0.4571E+02  0.3364E+02  0.3860E+03  0.2651E+03
      0.957  0.4867E+02  0.5319E+02  0.3977E+03  0.2778E+03
      1.197  0.5560E+02  0.6025E+02  0.4110E+03  0.2922E+03
      1.436  0.6451E+02  0.4444E+02  0.4265E+03  0.3029E+03
      1.676  0.1009E+03  0.3997E+02  0.4506E+03  0.3125E+03
      1.916  0.5206E+02  0.3849E+02  0.4631E+03  0.3217E+03
      2.155  0.3895E+02  0.3734E+02  0.4724E+03  0.3306E+03
      2.395  0.4649E+02  0.3831E+02  0.4836E+03  0.3398E+03
      2.634  0.4786E+02  0.4963E+02  0.4951E+03  0.3517E+03
      2.874  0.4343E+02  0.6279E+02  0.5055E+03  0.3668E+03
      3.114  0.4014E+02  0.5881E+02  0.5151E+03  0.3808E+03
      3.353  0.4765E+02  0.4773E+02  0.5265E+03  0.3923E+03
      3.593  0.5239E+02  0.3004E+02  0.5390E+03  0.3995E+03
      3.832  0.4530E+02  0.6168E+02  0.5499E+03  0.4143E+03
      4.072  0.3201E+02  0.7273E+02  0.5576E+03  0.4317E+03
      4.312  0.4238E+02  0.1317E+01  0.5677E+03  0.4320E+03
      4.551  0.2353E+02  0.0000E+00  0.5734E+03  0.4320E+03
      4.791  0.1015E+02  0.0000E+00  0.5758E+03  0.4320E+03
      5.030  0.8579E+00  0.0000E+00  0.5760E+03  0.4320E+03
      5.270  0.0000E+00  0.0000E+00  0.5760E+03  0.4320E+03
      5.510  0.0000E+00  0.0000E+00  0.5760E+03  0.4320E+03
      5.749  0.0000E+00  0.0000E+00  0.5760E+03  0.4320E+03
      5.989  0.0000E+00  0.6872E-11  0.5760E+03  0.4320E+03
      6.228  0.0000E+00  0.1499E+00  0.5760E+03  0.4320E+03
      6.468  0.0000E+00  0.8216E+01  0.5760E+03  0.4340E+03
      6.708  0.0000E+00  0.3035E+02  0.5760E+03  0.4413E+03
      6.947  0.1024E-11  0.4357E+02  0.5760E+03  0.4517E+03
      7.187  0.1116E+00  0.7340E+02  0.5760E+03  0.4693E+03
      7.426  0.1275E+00  0.8077E+02  0.5761E+03  0.4887E+03
      7.666  0.9113E+00  0.6541E+02  0.5763E+03  0.5043E+03
      7.906  0.3518E+01  0.8792E+02  0.5771E+03  0.5254E+03
      8.145  0.4263E+01  0.7112E+02  0.5781E+03  0.5424E+03
      8.385  0.7070E+01  0.5432E+02  0.5798E+03  0.5554E+03
      8.624  0.1643E+02  0.3725E+02  0.5838E+03  0.5644E+03
      8.864  0.2524E+02  0.3904E+02  0.5898E+03  0.5737E+03
      9.104  0.1923E+02  0.1927E+02  0.5944E+03  0.5783E+03
      9.343  0.2548E+02  0.1399E+02  0.6005E+03  0.5817E+03
      9.583  0.3130E+02  0.2058E+02  0.6080E+03  0.5866E+03
      9.822  0.2657E+02  0.3004E+02  0.6144E+03  0.5938E+03
     10.062  0.2961E+02  0.2655E+02  0.6215E+03  0.6002E+03
     10.302  0.2277E+02  0.3488E+02  0.6269E+03  0.6085E+03
     10.541  0.2038E+02  0.3529E+02  0.6318E+03  0.6170E+03
     10.781  0.2864E+02  0.2799E+02  0.6387E+03  0.6237E+03
     11.020  0.3894E+02  0.2234E+02  0.6480E+03  0.6291E+03
     11.260  0.3945E+02  0.2167E+02  0.6575E+03  0.6343E+03
     11.500  0.3720E+02  0.3232E+02  0.6664E+03  0.6420E+03
     11.739  0.4493E+02  0.3872E+02  0.6772E+03  0.6513E+03
     11.979  0.3846E+02  0.4267E+02  0.6864E+03  0.6615E+03
     12.219  0.3858E+02  0.5203E+02  0.6956E+03  0.6740E+03
     12.458  0.3991E+02  0.4672E+02  0.7052E+03  0.6852E+03
     12.698  0.3646E+02  0.3596E+02  0.7139E+03  0.6938E+03
     12.937  0.3425E+02  0.4129E+02  0.7221E+03  0.7037E+03
     13.177  0.2266E+02  0.3964E+02  0.7275E+03  0.7132E+03
     13.417  0.1887E+01  0.3418E+02  0.7280E+03  0.7214E+03
     13.656  0.0000E+00  0.2368E+02  0.7280E+03  0.7270E+03
     13.896  0.0000E+00  0.4059E+01  0.7280E+03  0.7280E+03
     14.135  0.0000E+00  0.3741E-05  0.7280E+03  0.7280E+03
     14.375  0.0000E+00  0.0000E+00  0.7280E+03  0.7280E+03
     14.615  0.0000E+00  0.0000E+00  0.7280E+03  0.7280E+03
     14.854  0.0000E+00  0.0000E+00  0.7280E+03  0.7280E+03
     15.094  0.0000E+00  0.0000E+00  0.7280E+03  0.7280E+03
     15.333  0.0000E+00  0.0000E+00  0.7280E+03  0.7280E+03
     15.573  0.0000E+00  0.0000E+00  0.7280E+03  0.7280E+03
     15.813  0.0000E+00  0.0000E+00  0.7280E+03  0.7280E+03
     16.052  0.0000E+00  0.0000E+00  0.7280E+03  0.7280E+03
     16.292  0.0000E+00  0.0000E+00  0.7280E+03  0.7280E+03
     16.531  0.0000E+00  0.0000E+00  0.7280E+03  0.7280E+03
     16.771  0.0000E+00  0.0000E+00  0.7280E+03  0.7280E+03
     17.011  0.0000E+00  0.0000E+00  0.7280E+03  0.7280E+03
