  88  88   0   0
  0.1431748E+02  0.1111223E-08  0.1111745E-08  0.1056954E-08  0.5000000E-15
  1.000000000000000E-004
  CAR 
 unknown system                          
     17.90227719    -54.34091908  301      5.19951518      1.00000000
    -54.341  0.0000E+00  0.0000E+00  0.0000E+00  0.0000E+00
    -54.100  0.0000E+00  0.0000E+00  0.0000E+00  0.0000E+00
    -53.859  0.0000E+00  0.0000E+00  0.0000E+00  0.0000E+00
    -53.618  0.0000E+00  0.0000E+00  0.0000E+00  0.0000E+00
    -53.378  0.0000E+00  0.0000E+00  0.0000E+00  0.0000E+00
    -53.137  0.0000E+00  0.0000E+00  0.0000E+00  0.0000E+00
    -52.896  0.0000E+00  0.0000E+00  0.0000E+00  0.0000E+00
    -52.655  0.0000E+00  0.0000E+00  0.0000E+00  0.0000E+00
    -52.414  0.0000E+00  0.0000E+00  0.0000E+00  0.0000E+00
    -52.174  0.0000E+00  0.0000E+00  0.0000E+00  0.0000E+00
    -51.933  0.0000E+00  0.0000E+00  0.0000E+00  0.0000E+00
    -51.692  0.0000E+00  0.0000E+00  0.0000E+00  0.0000E+00
    -51.451  0.0000E+00  0.0000E+00  0.0000E+00  0.0000E+00
    -51.210  0.3619E-03  0.0000E+00  0.8716E-04  0.0000E+00
    -50.970  0.1309E+03  0.0000E+00  0.3152E+02  0.0000E+00
    -50.729  0.2008E+01  0.0000E+00  0.3200E+02  0.0000E+00
    -50.488  0.0000E+00  0.0000E+00  0.3200E+02  0.0000E+00
    -50.247  0.0000E+00  0.0000E+00  0.3200E+02  0.0000E+00
    -50.006  0.0000E+00  0.0000E+00  0.3200E+02  0.0000E+00
    -49.766  0.1893E+01  0.0000E+00  0.3246E+02  0.0000E+00
    -49.525  0.2361E+03  0.0000E+00  0.8930E+02  0.0000E+00
    -49.284  0.2781E+02  0.0000E+00  0.9600E+02  0.0000E+00
    -49.043  0.0000E+00  0.0000E+00  0.9600E+02  0.0000E+00
    -48.802  0.0000E+00  0.0000E+00  0.9600E+02  0.0000E+00
    -48.561  0.0000E+00  0.0000E+00  0.9600E+02  0.0000E+00
    -48.321  0.0000E+00  0.0000E+00  0.9600E+02  0.0000E+00
    -48.080  0.0000E+00  0.0000E+00  0.9600E+02  0.0000E+00
    -47.839  0.0000E+00  0.0000E+00  0.9600E+02  0.0000E+00
    -47.598  0.0000E+00  0.0000E+00  0.9600E+02  0.0000E+00
    -47.357  0.0000E+00  0.0000E+00  0.9600E+02  0.0000E+00
    -47.117  0.0000E+00  0.0000E+00  0.9600E+02  0.0000E+00
    -46.876  0.0000E+00  0.0000E+00  0.9600E+02  0.0000E+00
    -46.635  0.0000E+00  0.0000E+00  0.9600E+02  0.0000E+00
    -46.394  0.0000E+00  0.3522E+00  0.9600E+02  0.8481E-01
    -46.153  0.0000E+00  0.1325E+03  0.9600E+02  0.3199E+02
    -45.913  0.0000E+00  0.5935E+02  0.9600E+02  0.4628E+02
    -45.672  0.0000E+00  0.2065E+03  0.9600E+02  0.9600E+02
    -45.431  0.0000E+00  0.0000E+00  0.9600E+02  0.9600E+02
    -45.190  0.0000E+00  0.0000E+00  0.9600E+02  0.9600E+02
    -44.949  0.0000E+00  0.0000E+00  0.9600E+02  0.9600E+02
    -44.708  0.0000E+00  0.0000E+00  0.9600E+02  0.9600E+02
    -44.468  0.0000E+00  0.0000E+00  0.9600E+02  0.9600E+02
    -44.227  0.0000E+00  0.0000E+00  0.9600E+02  0.9600E+02
    -43.986  0.0000E+00  0.0000E+00  0.9600E+02  0.9600E+02
    -43.745  0.0000E+00  0.0000E+00  0.9600E+02  0.9600E+02
    -43.504  0.0000E+00  0.0000E+00  0.9600E+02  0.9600E+02
    -43.264  0.0000E+00  0.0000E+00  0.9600E+02  0.9600E+02
    -43.023  0.0000E+00  0.0000E+00  0.9600E+02  0.9600E+02
    -42.782  0.0000E+00  0.0000E+00  0.9600E+02  0.9600E+02
    -42.541  0.0000E+00  0.0000E+00  0.9600E+02  0.9600E+02
    -42.300  0.0000E+00  0.0000E+00  0.9600E+02  0.9600E+02
    -42.060  0.0000E+00  0.0000E+00  0.9600E+02  0.9600E+02
    -41.819  0.0000E+00  0.0000E+00  0.9600E+02  0.9600E+02
    -41.578  0.0000E+00  0.0000E+00  0.9600E+02  0.9600E+02
    -41.337  0.0000E+00  0.0000E+00  0.9600E+02  0.9600E+02
    -41.096  0.0000E+00  0.0000E+00  0.9600E+02  0.9600E+02
    -40.856  0.0000E+00  0.0000E+00  0.9600E+02  0.9600E+02
    -40.615  0.0000E+00  0.0000E+00  0.9600E+02  0.9600E+02
    -40.374  0.0000E+00  0.0000E+00  0.9600E+02  0.9600E+02
    -40.133  0.1317E-11  0.8352E-12  0.9600E+02  0.9600E+02
    -39.892  0.1454E+02  0.1343E+02  0.9950E+02  0.9923E+02
    -39.651  0.5190E+02  0.5302E+02  0.1120E+03  0.1120E+03
    -39.411  0.0000E+00  0.0000E+00  0.1120E+03  0.1120E+03
    -39.170  0.0000E+00  0.0000E+00  0.1120E+03  0.1120E+03
    -38.929  0.0000E+00  0.0000E+00  0.1120E+03  0.1120E+03
    -38.688  0.0000E+00  0.0000E+00  0.1120E+03  0.1120E+03
    -38.447  0.0000E+00  0.0000E+00  0.1120E+03  0.1120E+03
    -38.207  0.0000E+00  0.0000E+00  0.1120E+03  0.1120E+03
    -37.966  0.0000E+00  0.0000E+00  0.1120E+03  0.1120E+03
    -37.725  0.0000E+00  0.0000E+00  0.1120E+03  0.1120E+03
    -37.484  0.0000E+00  0.0000E+00  0.1120E+03  0.1120E+03
    -37.243  0.0000E+00  0.0000E+00  0.1120E+03  0.1120E+03
    -37.003  0.0000E+00  0.0000E+00  0.1120E+03  0.1120E+03
    -36.762  0.0000E+00  0.0000E+00  0.1120E+03  0.1120E+03
    -36.521  0.0000E+00  0.0000E+00  0.1120E+03  0.1120E+03
    -36.280  0.0000E+00  0.0000E+00  0.1120E+03  0.1120E+03
    -36.039  0.0000E+00  0.0000E+00  0.1120E+03  0.1120E+03
    -35.798  0.0000E+00  0.0000E+00  0.1120E+03  0.1120E+03
    -35.558  0.0000E+00  0.0000E+00  0.1120E+03  0.1120E+03
    -35.317  0.0000E+00  0.0000E+00  0.1120E+03  0.1120E+03
    -35.076  0.0000E+00  0.0000E+00  0.1120E+03  0.1120E+03
    -34.835  0.0000E+00  0.0000E+00  0.1120E+03  0.1120E+03
    -34.594  0.0000E+00  0.0000E+00  0.1120E+03  0.1120E+03
    -34.354  0.0000E+00  0.0000E+00  0.1120E+03  0.1120E+03
    -34.113  0.0000E+00  0.0000E+00  0.1120E+03  0.1120E+03
    -33.872  0.0000E+00  0.0000E+00  0.1120E+03  0.1120E+03
    -33.631  0.0000E+00  0.0000E+00  0.1120E+03  0.1120E+03
    -33.390  0.0000E+00  0.0000E+00  0.1120E+03  0.1120E+03
    -33.150  0.0000E+00  0.0000E+00  0.1120E+03  0.1120E+03
    -32.909  0.0000E+00  0.0000E+00  0.1120E+03  0.1120E+03
    -32.668  0.0000E+00  0.0000E+00  0.1120E+03  0.1120E+03
    -32.427  0.0000E+00  0.0000E+00  0.1120E+03  0.1120E+03
    -32.186  0.0000E+00  0.0000E+00  0.1120E+03  0.1120E+03
    -31.946  0.0000E+00  0.0000E+00  0.1120E+03  0.1120E+03
    -31.705  0.0000E+00  0.0000E+00  0.1120E+03  0.1120E+03
    -31.464  0.0000E+00  0.0000E+00  0.1120E+03  0.1120E+03
    -31.223  0.0000E+00  0.0000E+00  0.1120E+03  0.1120E+03
    -30.982  0.0000E+00  0.0000E+00  0.1120E+03  0.1120E+03
    -30.741  0.0000E+00  0.0000E+00  0.1120E+03  0.1120E+03
    -30.501  0.0000E+00  0.0000E+00  0.1120E+03  0.1120E+03
    -30.260  0.0000E+00  0.0000E+00  0.1120E+03  0.1120E+03
    -30.019  0.0000E+00  0.0000E+00  0.1120E+03  0.1120E+03
    -29.778  0.0000E+00  0.0000E+00  0.1120E+03  0.1120E+03
    -29.537  0.0000E+00  0.0000E+00  0.1120E+03  0.1120E+03
    -29.297  0.0000E+00  0.0000E+00  0.1120E+03  0.1120E+03
    -29.056  0.0000E+00  0.0000E+00  0.1120E+03  0.1120E+03
    -28.815  0.0000E+00  0.0000E+00  0.1120E+03  0.1120E+03
    -28.574  0.0000E+00  0.0000E+00  0.1120E+03  0.1120E+03
    -28.333  0.0000E+00  0.0000E+00  0.1120E+03  0.1120E+03
    -28.093  0.0000E+00  0.0000E+00  0.1120E+03  0.1120E+03
    -27.852  0.0000E+00  0.0000E+00  0.1120E+03  0.1120E+03
    -27.611  0.0000E+00  0.0000E+00  0.1120E+03  0.1120E+03
    -27.370  0.0000E+00  0.0000E+00  0.1120E+03  0.1120E+03
    -27.129  0.0000E+00  0.0000E+00  0.1120E+03  0.1120E+03
    -26.889  0.0000E+00  0.0000E+00  0.1120E+03  0.1120E+03
    -26.648  0.0000E+00  0.0000E+00  0.1120E+03  0.1120E+03
    -26.407  0.0000E+00  0.0000E+00  0.1120E+03  0.1120E+03
    -26.166  0.0000E+00  0.0000E+00  0.1120E+03  0.1120E+03
    -25.925  0.0000E+00  0.0000E+00  0.1120E+03  0.1120E+03
    -25.684  0.0000E+00  0.0000E+00  0.1120E+03  0.1120E+03
    -25.444  0.0000E+00  0.0000E+00  0.1120E+03  0.1120E+03
    -25.203  0.0000E+00  0.0000E+00  0.1120E+03  0.1120E+03
    -24.962  0.0000E+00  0.0000E+00  0.1120E+03  0.1120E+03
    -24.721  0.0000E+00  0.0000E+00  0.1120E+03  0.1120E+03
    -24.480  0.0000E+00  0.0000E+00  0.1120E+03  0.1120E+03
    -24.240  0.0000E+00  0.0000E+00  0.1120E+03  0.1120E+03
    -23.999  0.0000E+00  0.0000E+00  0.1120E+03  0.1120E+03
    -23.758  0.0000E+00  0.0000E+00  0.1120E+03  0.1120E+03
    -23.517  0.0000E+00  0.0000E+00  0.1120E+03  0.1120E+03
    -23.276  0.0000E+00  0.0000E+00  0.1120E+03  0.1120E+03
    -23.036  0.0000E+00  0.0000E+00  0.1120E+03  0.1120E+03
    -22.795  0.0000E+00  0.0000E+00  0.1120E+03  0.1120E+03
    -22.554  0.0000E+00  0.0000E+00  0.1120E+03  0.1120E+03
    -22.313  0.0000E+00  0.0000E+00  0.1120E+03  0.1120E+03
    -22.072  0.0000E+00  0.0000E+00  0.1120E+03  0.1120E+03
    -21.831  0.0000E+00  0.0000E+00  0.1120E+03  0.1120E+03
    -21.591  0.0000E+00  0.0000E+00  0.1120E+03  0.1120E+03
    -21.350  0.0000E+00  0.0000E+00  0.1120E+03  0.1120E+03
    -21.109  0.0000E+00  0.0000E+00  0.1120E+03  0.1120E+03
    -20.868  0.0000E+00  0.0000E+00  0.1120E+03  0.1120E+03
    -20.627  0.0000E+00  0.0000E+00  0.1120E+03  0.1120E+03
    -20.387  0.0000E+00  0.0000E+00  0.1120E+03  0.1120E+03
    -20.146  0.0000E+00  0.0000E+00  0.1120E+03  0.1120E+03
    -19.905  0.0000E+00  0.0000E+00  0.1120E+03  0.1120E+03
    -19.664  0.0000E+00  0.0000E+00  0.1120E+03  0.1120E+03
    -19.423  0.0000E+00  0.0000E+00  0.1120E+03  0.1120E+03
    -19.183  0.0000E+00  0.0000E+00  0.1120E+03  0.1120E+03
    -18.942  0.0000E+00  0.0000E+00  0.1120E+03  0.1120E+03
    -18.701  0.0000E+00  0.0000E+00  0.1120E+03  0.1120E+03
    -18.460  0.0000E+00  0.0000E+00  0.1120E+03  0.1120E+03
    -18.219  0.0000E+00  0.0000E+00  0.1120E+03  0.1120E+03
    -17.979  0.0000E+00  0.0000E+00  0.1120E+03  0.1120E+03
    -17.738  0.0000E+00  0.0000E+00  0.1120E+03  0.1120E+03
    -17.497  0.0000E+00  0.0000E+00  0.1120E+03  0.1120E+03
    -17.256  0.0000E+00  0.0000E+00  0.1120E+03  0.1120E+03
    -17.015  0.0000E+00  0.0000E+00  0.1120E+03  0.1120E+03
    -16.774  0.0000E+00  0.0000E+00  0.1120E+03  0.1120E+03
    -16.534  0.0000E+00  0.0000E+00  0.1120E+03  0.1120E+03
    -16.293  0.0000E+00  0.0000E+00  0.1120E+03  0.1120E+03
    -16.052  0.0000E+00  0.0000E+00  0.1120E+03  0.1120E+03
    -15.811  0.0000E+00  0.0000E+00  0.1120E+03  0.1120E+03
    -15.570  0.0000E+00  0.0000E+00  0.1120E+03  0.1120E+03
    -15.330  0.0000E+00  0.0000E+00  0.1120E+03  0.1120E+03
    -15.089  0.0000E+00  0.0000E+00  0.1120E+03  0.1120E+03
    -14.848  0.0000E+00  0.0000E+00  0.1120E+03  0.1120E+03
    -14.607  0.0000E+00  0.0000E+00  0.1120E+03  0.1120E+03
    -14.366  0.0000E+00  0.0000E+00  0.1120E+03  0.1120E+03
    -14.126  0.0000E+00  0.0000E+00  0.1120E+03  0.1120E+03
    -13.885  0.0000E+00  0.0000E+00  0.1120E+03  0.1120E+03
    -13.644  0.0000E+00  0.0000E+00  0.1120E+03  0.1120E+03
    -13.403  0.4887E-06  0.0000E+00  0.1120E+03  0.1120E+03
    -13.162  0.1859E+02  0.0000E+00  0.1165E+03  0.1120E+03
    -12.921  0.4629E+02  0.6669E-02  0.1276E+03  0.1120E+03
    -12.681  0.1568E+01  0.4175E+02  0.1280E+03  0.1221E+03
    -12.440  0.0000E+00  0.2469E+02  0.1280E+03  0.1280E+03
    -12.199  0.0000E+00  0.3434E-05  0.1280E+03  0.1280E+03
    -11.958  0.0000E+00  0.0000E+00  0.1280E+03  0.1280E+03
    -11.717  0.0000E+00  0.0000E+00  0.1280E+03  0.1280E+03
    -11.477  0.0000E+00  0.0000E+00  0.1280E+03  0.1280E+03
    -11.236  0.0000E+00  0.0000E+00  0.1280E+03  0.1280E+03
    -10.995  0.0000E+00  0.0000E+00  0.1280E+03  0.1280E+03
    -10.754  0.0000E+00  0.0000E+00  0.1280E+03  0.1280E+03
    -10.513  0.0000E+00  0.0000E+00  0.1280E+03  0.1280E+03
    -10.273  0.0000E+00  0.0000E+00  0.1280E+03  0.1280E+03
    -10.032  0.0000E+00  0.0000E+00  0.1280E+03  0.1280E+03
     -9.791  0.0000E+00  0.0000E+00  0.1280E+03  0.1280E+03
     -9.550  0.0000E+00  0.0000E+00  0.1280E+03  0.1280E+03
     -9.309  0.0000E+00  0.0000E+00  0.1280E+03  0.1280E+03
     -9.069  0.0000E+00  0.0000E+00  0.1280E+03  0.1280E+03
     -8.828  0.0000E+00  0.0000E+00  0.1280E+03  0.1280E+03
     -8.587  0.0000E+00  0.0000E+00  0.1280E+03  0.1280E+03
     -8.346  0.0000E+00  0.0000E+00  0.1280E+03  0.1280E+03
     -8.105  0.0000E+00  0.0000E+00  0.1280E+03  0.1280E+03
     -7.864  0.4551E-10  0.0000E+00  0.1280E+03  0.1280E+03
     -7.624  0.5280E+00  0.7931E-11  0.1281E+03  0.1280E+03
     -7.383  0.1238E+02  0.4620E+00  0.1311E+03  0.1281E+03
     -7.142  0.3024E+02  0.1360E+02  0.1384E+03  0.1314E+03
     -6.901  0.3364E+02  0.2950E+02  0.1465E+03  0.1385E+03
     -6.660  0.2286E+02  0.2582E+02  0.1520E+03  0.1447E+03
     -6.420  0.3558E-04  0.3021E+02  0.1520E+03  0.1520E+03
     -6.179  0.0000E+00  0.6647E-01  0.1520E+03  0.1520E+03
     -5.938  0.0000E+00  0.0000E+00  0.1520E+03  0.1520E+03
     -5.697  0.0000E+00  0.0000E+00  0.1520E+03  0.1520E+03
     -5.456  0.0000E+00  0.0000E+00  0.1520E+03  0.1520E+03
     -5.216  0.0000E+00  0.0000E+00  0.1520E+03  0.1520E+03
     -4.975  0.0000E+00  0.0000E+00  0.1520E+03  0.1520E+03
     -4.734  0.0000E+00  0.0000E+00  0.1520E+03  0.1520E+03
     -4.493  0.0000E+00  0.0000E+00  0.1520E+03  0.1520E+03
     -4.252  0.0000E+00  0.0000E+00  0.1520E+03  0.1520E+03
     -4.011  0.0000E+00  0.0000E+00  0.1520E+03  0.1520E+03
     -3.771  0.0000E+00  0.0000E+00  0.1520E+03  0.1520E+03
     -3.530  0.0000E+00  0.0000E+00  0.1520E+03  0.1520E+03
     -3.289  0.0000E+00  0.0000E+00  0.1520E+03  0.1520E+03
     -3.048  0.0000E+00  0.0000E+00  0.1520E+03  0.1520E+03
     -2.807  0.0000E+00  0.0000E+00  0.1520E+03  0.1520E+03
     -2.567  0.0000E+00  0.0000E+00  0.1520E+03  0.1520E+03
     -2.326  0.0000E+00  0.0000E+00  0.1520E+03  0.1520E+03
     -2.085  0.1672E-04  0.0000E+00  0.1520E+03  0.1520E+03
     -1.844  0.1561E+02  0.0000E+00  0.1558E+03  0.1520E+03
     -1.603  0.1968E+02  0.0000E+00  0.1605E+03  0.1520E+03
     -1.363  0.1492E+02  0.0000E+00  0.1641E+03  0.1520E+03
     -1.122  0.1704E+02  0.0000E+00  0.1682E+03  0.1520E+03
     -0.881  0.4542E+02  0.0000E+00  0.1791E+03  0.1520E+03
     -0.640  0.5892E+02  0.5825E-06  0.1933E+03  0.1520E+03
     -0.399  0.3871E+02  0.3934E+01  0.2026E+03  0.1529E+03
     -0.159  0.6758E+02  0.2035E+02  0.2189E+03  0.1578E+03
      0.082  0.7389E+02  0.1224E+02  0.2367E+03  0.1608E+03
      0.323  0.7753E+02  0.1839E+02  0.2554E+03  0.1652E+03
      0.564  0.6974E+02  0.2947E+02  0.2722E+03  0.1723E+03
      0.805  0.5619E+02  0.3911E+02  0.2857E+03  0.1817E+03
      1.046  0.3648E+02  0.3732E+02  0.2945E+03  0.1907E+03
      1.286  0.3049E+02  0.3144E+02  0.3018E+03  0.1983E+03
      1.527  0.4507E+02  0.2068E+02  0.3127E+03  0.2033E+03
      1.768  0.4185E+02  0.2905E+02  0.3228E+03  0.2103E+03
      2.009  0.6872E+02  0.3664E+02  0.3393E+03  0.2191E+03
      2.250  0.5867E+02  0.2795E+02  0.3534E+03  0.2258E+03
      2.490  0.2668E+02  0.2696E+02  0.3599E+03  0.2323E+03
      2.731  0.4255E+02  0.3037E+02  0.3701E+03  0.2396E+03
      2.972  0.3071E+02  0.4422E+02  0.3775E+03  0.2503E+03
      3.213  0.8630E+01  0.4556E+02  0.3796E+03  0.2613E+03
      3.454  0.2749E+02  0.3267E+02  0.3862E+03  0.2691E+03
      3.694  0.2747E+02  0.1263E+02  0.3928E+03  0.2722E+03
      3.935  0.3076E+02  0.1731E+02  0.4002E+03  0.2763E+03
      4.176  0.3592E+02  0.5275E+02  0.4089E+03  0.2890E+03
      4.417  0.3634E+02  0.4453E+02  0.4176E+03  0.2998E+03
      4.658  0.3039E+02  0.1762E+02  0.4249E+03  0.3040E+03
      4.899  0.2587E+02  0.6866E-02  0.4312E+03  0.3040E+03
      5.139  0.3403E+01  0.0000E+00  0.4320E+03  0.3040E+03
      5.380  0.0000E+00  0.0000E+00  0.4320E+03  0.3040E+03
      5.621  0.0000E+00  0.0000E+00  0.4320E+03  0.3040E+03
      5.862  0.0000E+00  0.0000E+00  0.4320E+03  0.3040E+03
      6.103  0.0000E+00  0.1873E-09  0.4320E+03  0.3040E+03
      6.343  0.0000E+00  0.3745E+00  0.4320E+03  0.3041E+03
      6.584  0.0000E+00  0.4186E+01  0.4320E+03  0.3051E+03
      6.825  0.0000E+00  0.7763E+01  0.4320E+03  0.3070E+03
      7.066  0.2988E-15  0.1891E+02  0.4320E+03  0.3115E+03
      7.307  0.2272E-01  0.4392E+02  0.4320E+03  0.3221E+03
      7.547  0.1311E+00  0.5309E+02  0.4320E+03  0.3349E+03
      7.788  0.2237E+00  0.6350E+02  0.4321E+03  0.3502E+03
      8.029  0.7450E+00  0.6562E+02  0.4323E+03  0.3660E+03
      8.270  0.2056E+01  0.6991E+02  0.4328E+03  0.3828E+03
      8.511  0.2636E+01  0.5962E+02  0.4334E+03  0.3972E+03
      8.751  0.8841E+01  0.5855E+02  0.4355E+03  0.4113E+03
      8.992  0.1237E+02  0.4831E+02  0.4385E+03  0.4229E+03
      9.233  0.1308E+02  0.3031E+02  0.4417E+03  0.4302E+03
      9.474  0.1803E+02  0.9080E+01  0.4460E+03  0.4324E+03
      9.715  0.1634E+02  0.2936E+01  0.4499E+03  0.4331E+03
      9.956  0.1568E+02  0.8296E+01  0.4537E+03  0.4351E+03
     10.196  0.2249E+02  0.1855E+02  0.4591E+03  0.4396E+03
     10.437  0.1483E+02  0.1798E+02  0.4627E+03  0.4439E+03
     10.678  0.1538E+02  0.1712E+02  0.4664E+03  0.4480E+03
     10.919  0.1311E+02  0.2758E+02  0.4696E+03  0.4547E+03
     11.160  0.2057E+02  0.1899E+02  0.4745E+03  0.4592E+03
     11.400  0.2459E+02  0.2389E+02  0.4804E+03  0.4650E+03
     11.641  0.2741E+02  0.1505E+02  0.4870E+03  0.4686E+03
     11.882  0.2442E+02  0.1374E+02  0.4929E+03  0.4719E+03
     12.123  0.3371E+02  0.1589E+02  0.5010E+03  0.4757E+03
     12.364  0.1994E+02  0.3643E+02  0.5058E+03  0.4845E+03
     12.604  0.2302E+02  0.3277E+02  0.5114E+03  0.4924E+03
     12.845  0.2138E+02  0.3015E+02  0.5165E+03  0.4997E+03
     13.086  0.2044E+02  0.2031E+02  0.5214E+03  0.5046E+03
     13.327  0.2362E+02  0.2198E+02  0.5271E+03  0.5099E+03
     13.568  0.2456E+02  0.2722E+02  0.5330E+03  0.5164E+03
     13.808  0.1351E+02  0.2373E+02  0.5363E+03  0.5221E+03
     14.049  0.7046E+01  0.2635E+02  0.5380E+03  0.5285E+03
     14.290  0.3614E-02  0.1929E+02  0.5380E+03  0.5331E+03
     14.531  0.0000E+00  0.1686E+02  0.5380E+03  0.5372E+03
     14.772  0.0000E+00  0.3443E+01  0.5380E+03  0.5380E+03
     15.013  0.0000E+00  0.2248E-05  0.5380E+03  0.5380E+03
     15.253  0.0000E+00  0.0000E+00  0.5380E+03  0.5380E+03
     15.494  0.0000E+00  0.0000E+00  0.5380E+03  0.5380E+03
     15.735  0.0000E+00  0.0000E+00  0.5380E+03  0.5380E+03
     15.976  0.0000E+00  0.0000E+00  0.5380E+03  0.5380E+03
     16.217  0.0000E+00  0.0000E+00  0.5380E+03  0.5380E+03
     16.457  0.0000E+00  0.0000E+00  0.5380E+03  0.5380E+03
     16.698  0.0000E+00  0.0000E+00  0.5380E+03  0.5380E+03
     16.939  0.0000E+00  0.0000E+00  0.5380E+03  0.5380E+03
     17.180  0.0000E+00  0.0000E+00  0.5380E+03  0.5380E+03
     17.421  0.0000E+00  0.0000E+00  0.5380E+03  0.5380E+03
     17.661  0.0000E+00  0.0000E+00  0.5380E+03  0.5380E+03
     17.902  0.0000E+00  0.0000E+00  0.5380E+03  0.5380E+03
