    9    9   60    2
  0.1337776E+02  0.3793020E-09  0.5634524E-09  0.5634869E-09  0.5000000E-15
   1.0000000000000000E-004
  CAR 
 unknown system                          
     72     52     56

  0.1262379E-14  0.1262379E-14  0.1262379E-14  0.1041667E-01
    1      -56.107218    -49.523165   1.000000   1.000000
    2      -56.105691    -49.519977   1.000000   1.000000
    3      -55.814513    -49.469232   1.000000   1.000000
    4      -54.815197    -49.445319   1.000000   1.000000
    5      -54.813674    -49.443087   1.000000   1.000000
    6      -54.492361    -49.442980   1.000000   1.000000
    7      -54.472163    -49.163959   1.000000   1.000000
    8      -54.322113    -49.155017   1.000000   1.000000
    9      -54.320679    -49.131249   1.000000   1.000000
   10      -43.566526    -43.572895   1.000000   1.000000
   11      -43.564400    -43.570695   1.000000   1.000000
   12      -16.205745    -15.707665   1.000000   1.000000
   13      -16.077596    -15.582393   1.000000   1.000000
   14       -9.364687     -9.007152   1.000000   1.000000
   15       -8.830522     -8.500773   1.000000   1.000000
   16       -2.793911     -1.683870   1.000000   1.000000
   17       -2.305886     -0.929232   1.000000   1.000000
   18       -2.120460     -0.514362   1.000000   1.000000
   19       -1.991488     -0.427049   1.000000   1.000000
   20       -1.711262     -0.360066   1.000000   1.000000
   21       -1.382691     -0.214435   1.000000   1.000000
   22       -0.736779      0.912847   1.000000   1.000000
   23       -0.701981      2.332736   1.000000   1.000000
   24       -0.654185      2.514388   1.000000   1.000000
   25       -0.368924      2.613904   1.000000   1.000000
   26       -0.298772      2.782492   1.000000   1.000000
   27       -0.057280      2.814191   1.000000   1.000000
   28       -0.037603      3.166275   1.000000   1.000000
   29        0.002919      3.914441   1.000000   1.000000
   30        0.275447      4.723518   1.000000   1.000000
   31        0.542623      7.177957   1.000000   0.000000
   32        0.572453      7.317462   1.000000   0.000000
   33        0.788512      7.437327   1.000000   0.000000
   34        1.264992      7.550397   1.000000   0.000000
   35        1.938818      8.263222   1.000000   0.000000
   36        2.019257      8.357736   1.000000   0.000000
   37        2.323709      8.535605   1.000000   0.000000
   38        3.340061      8.791235   1.000000   0.000000
   39        3.395832      8.966301   1.000000   0.000000
   40        3.552316      9.131029   1.000000   0.000000
   41        4.218216      9.273256   1.000000   0.000000
   42        4.285099      9.374848   1.000000   0.000000
   43        7.562090      9.872751   0.000000   0.000000
   44        8.095407     10.315403   0.000000   0.000000
   45        9.952209     10.559725   0.000000   0.000000
   46       10.516219     11.488830   0.000000   0.000000
   47       11.623425     12.226711   0.000000   0.000000
   48       12.488920     13.509932   0.000000   0.000000
   49       13.206160     14.509109   0.000000   0.000000
   50       14.796363     15.205929   0.000000   0.000000
   51       14.832643     15.548813   0.000000   0.000000
   52       16.336510     16.864848   0.000000   0.000000
   53       16.533182     17.303562   0.000000   0.000000
   54       16.661901     17.335882   0.000000   0.000000
   55       16.916901     17.579845   0.000000   0.000000
   56       17.654340     18.368559   0.000000   0.000000

  0.1666667E+00  0.1262379E-14  0.1262380E-14  0.2083333E-01
    1      -56.107829    -49.522954   1.000000   1.000000
    2      -56.106293    -49.519732   1.000000   1.000000
    3      -55.814415    -49.469357   1.000000   1.000000
    4      -54.815190    -49.446303   1.000000   1.000000
    5      -54.813670    -49.444106   1.000000   1.000000
    6      -54.492390    -49.442966   1.000000   1.000000
    7      -54.472172    -49.163901   1.000000   1.000000
    8      -54.322087    -49.155378   1.000000   1.000000
    9      -54.320961    -49.131177   1.000000   1.000000
   10      -43.566311    -43.572657   1.000000   1.000000
   11      -43.564206    -43.570522   1.000000   1.000000
   12      -16.148216    -15.650135   1.000000   1.000000
   13      -16.024949    -15.530861   1.000000   1.000000
   14       -9.309953     -8.958343   1.000000   1.000000
   15       -8.768018     -8.428799   1.000000   1.000000
   16       -2.913586     -1.509525   1.000000   1.000000
   17       -2.616033     -0.791334   1.000000   1.000000
   18       -1.982692     -0.732509   1.000000   1.000000
   19       -1.947445     -0.718450   1.000000   1.000000
   20       -1.464480     -0.211821   1.000000   1.000000
   21       -1.409292     -0.179440   1.000000   1.000000
   22       -1.085447      0.931605   1.000000   1.000000
   23       -0.599305      2.056924   1.000000   1.000000
   24       -0.567690      2.148159   1.000000   1.000000
   25       -0.260426      2.373565   1.000000   1.000000
   26       -0.167007      2.377075   1.000000   1.000000
   27       -0.081925      2.523349   1.000000   1.000000
   28       -0.038795      2.770273   1.000000   1.000000
   29        0.133756      4.095476   1.000000   1.000000
   30        0.144458      4.749456   1.000000   1.000000
   31        0.464781      7.188645   1.000000   0.000000
   32        0.583484      7.314721   1.000000   0.000000
   33        0.779456      7.466460   1.000000   0.000000
   34        1.311672      7.754730   1.000000   0.000000
   35        1.340164      7.819270   1.000000   0.000000
   36        2.143307      8.354240   1.000000   0.000000
   37        2.253104      8.508926   1.000000   0.000000
   38        2.581515      8.815233   1.000000   0.000000
   39        3.087230      8.960913   1.000000   0.000000
   40        3.534968      9.126791   1.000000   0.000000
   41        3.661174      9.360281   1.000000   0.000000
   42        4.079350      9.510951   1.000000   0.000000
   43        8.274757     10.050354   0.000000   0.000000
   44        8.849004     11.044112   0.000000   0.000000
   45       10.061740     11.448867   0.000000   0.000000
   46       11.684166     12.145677   0.000000   0.000000
   47       12.205498     12.934544   0.000000   0.000000
   48       12.511520     13.513590   0.000000   0.000000
   49       12.592824     13.913079   0.000000   0.000000
   50       14.200264     14.619528   0.000000   0.000000
   51       15.049157     15.670920   0.000000   0.000000
   52       15.329695     15.937938   0.000000   0.000000
   53       16.004969     16.649071   0.000000   0.000000
   54       16.381873     16.924916   0.000000   0.000000
   55       16.822115     17.804917   0.000000   0.000000
   56       16.849449     17.920277   0.000000   0.000000

  0.3333333E+00  0.1262383E-14  0.1262382E-14  0.2083333E-01
    1      -56.108987    -49.522524   1.000000   1.000000
    2      -56.107505    -49.519225   1.000000   1.000000
    3      -55.814219    -49.469600   1.000000   1.000000
    4      -54.815174    -49.448240   1.000000   1.000000
    5      -54.813644    -49.446205   1.000000   1.000000
    6      -54.492462    -49.442876   1.000000   1.000000
    7      -54.472180    -49.163757   1.000000   1.000000
    8      -54.322022    -49.156114   1.000000   1.000000
    9      -54.321513    -49.131040   1.000000   1.000000
   10      -43.565902    -43.572203   1.000000   1.000000
   11      -43.563732    -43.570094   1.000000   1.000000
   12      -16.029783    -15.531853   1.000000   1.000000
   13      -15.917108    -15.425566   1.000000   1.000000
   14       -9.199689     -8.861503   1.000000   1.000000
   15       -8.636891     -8.275973   1.000000   1.000000
   16       -2.960168     -1.221475   1.000000   1.000000
   17       -2.938438     -1.213524   1.000000   1.000000
   18       -2.057459     -0.876916   1.000000   1.000000
   19       -2.049081     -0.401694   1.000000   1.000000
   20       -1.777521     -0.106103   1.000000   1.000000
   21       -1.085406      0.137518   1.000000   1.000000
   22       -0.835128      0.705720   1.000000   1.000000
   23       -0.660093      1.018112   1.000000   1.000000
   24       -0.517517      1.355633   1.000000   1.000000
   25       -0.461290      1.369272   1.000000   1.000000
   26       -0.337780      2.118389   1.000000   1.000000
   27       -0.040327      2.258276   1.000000   1.000000
   28        0.122409      2.778435   1.000000   1.000000
   29        0.407433      4.155410   1.000000   1.000000
   30        0.432445      4.808283   1.000000   1.000000
   31        0.504343      6.770827   1.000000   0.000000
   32        0.531011      7.070699   1.000000   0.000000
   33        0.715484      7.245538   1.000000   0.000000
   34        0.786487      7.898184   1.000000   0.000000
   35        1.164163      8.280971   1.000000   0.000000
   36        1.833352      8.319172   1.000000   0.000000
   37        1.918399      8.514677   1.000000   0.000000
   38        2.078251      8.777332   1.000000   0.000000
   39        2.130881      9.023997   1.000000   0.000000
   40        3.309594      9.316300   1.000000   0.000000
   41        3.471617      9.433507   1.000000   0.000000
   42        3.523424      9.608482   1.000000   0.000000
   43        9.588810     11.241118   0.000000   0.000000
   44       10.438367     11.618597   0.000000   0.000000
   45       10.600025     12.318955   0.000000   0.000000
   46       11.701119     13.251779   0.000000   0.000000
   47       12.531673     13.448265   0.000000   0.000000
   48       13.245335     13.664938   0.000000   0.000000
   49       13.516955     14.116815   0.000000   0.000000
   50       13.725134     14.365422   0.000000   0.000000
   51       14.482728     15.193622   0.000000   0.000000
   52       14.804820     15.293842   0.000000   0.000000
   53       15.494451     16.271490   0.000000   0.000000
   54       15.974948     16.542560   0.000000   0.000000
   55       16.391733     17.008002   0.000000   0.000000
   56       16.604650     17.386441   0.000000   0.000000

  0.5000000E+00  0.1262383E-14  0.1262383E-14  0.1041667E-01
    1      -56.109527    -49.522300   1.000000   1.000000
    2      -56.108130    -49.518985   1.000000   1.000000
    3      -55.814134    -49.469714   1.000000   1.000000
    4      -54.815156    -49.449199   1.000000   1.000000
    5      -54.813645    -49.447262   1.000000   1.000000
    6      -54.492507    -49.442830   1.000000   1.000000
    7      -54.472187    -49.163682   1.000000   1.000000
    8      -54.321971    -49.156493   1.000000   1.000000
    9      -54.321807    -49.130985   1.000000   1.000000
   10      -43.565685    -43.571964   1.000000   1.000000
   11      -43.563539    -43.569923   1.000000   1.000000
   12      -15.968823    -15.471061   1.000000   1.000000
   13      -15.861903    -15.371806   1.000000   1.000000
   14       -9.144381     -8.813771   1.000000   1.000000
   15       -8.567888     -8.194484   1.000000   1.000000
   16       -3.059234     -1.450981   1.000000   1.000000
   17       -2.875141     -1.240658   1.000000   1.000000
   18       -2.311811     -0.584444   1.000000   1.000000
   19       -2.098533     -0.067916   1.000000   1.000000
   20       -1.919984     -0.028660   1.000000   1.000000
   21       -0.984448      0.333090   1.000000   1.000000
   22       -0.727239      0.387294   1.000000   1.000000
   23       -0.693165      0.637362   1.000000   1.000000
   24       -0.558923      0.817724   1.000000   1.000000
   25       -0.422626      0.927512   1.000000   1.000000
   26       -0.260002      1.891588   1.000000   1.000000
   27       -0.048924      2.111838   1.000000   1.000000
   28        0.175878      2.806135   1.000000   1.000000
   29        0.340225      4.152784   1.000000   1.000000
   30        0.423653      4.840366   1.000000   1.000000
   31        0.484584      6.613066   1.000000   0.000000
   32        0.601297      6.971167   1.000000   0.000000
   33        0.613730      7.021949   1.000000   0.000000
   34        0.797052      8.097071   1.000000   0.000000
   35        1.346435      8.187912   1.000000   0.000000
   36        1.546664      8.549229   1.000000   0.000000
   37        1.651024      8.678395   1.000000   0.000000
   38        1.768190      8.803234   1.000000   0.000000
   39        2.073814      8.895440   1.000000   0.000000
   40        2.853610      9.434573   1.000000   0.000000
   41        3.441087      9.448013   1.000000   0.000000
   42        3.460689      9.699886   1.000000   0.000000
   43       10.333646     11.590127   0.000000   0.000000
   44       10.871599     12.214030   0.000000   0.000000
   45       11.439278     12.988588   0.000000   0.000000
   46       11.506767     13.048890   0.000000   0.000000
   47       12.293116     13.367172   0.000000   0.000000
   48       13.028883     13.806170   0.000000   0.000000
   49       13.322702     13.818328   0.000000   0.000000
   50       13.925981     14.622580   0.000000   0.000000
   51       14.344229     14.907650   0.000000   0.000000
   52       14.664412     15.127476   0.000000   0.000000
   53       14.855220     15.312413   0.000000   0.000000
   54       15.530634     16.303138   0.000000   0.000000
   55       16.187024     17.247687   0.000000   0.000000
   56       17.395934     18.000424   0.000000   0.000000

  0.1262379E-14  0.2500000E+00  0.1259217E-14  0.2083333E-01
    1      -56.107224    -49.523214   1.000000   1.000000
    2      -56.105711    -49.519793   1.000000   1.000000
    3      -55.814520    -49.469428   1.000000   1.000000
    4      -54.815295    -49.445242   1.000000   1.000000
    5      -54.813600    -49.443092   1.000000   1.000000
    6      -54.492370    -49.442678   1.000000   1.000000
    7      -54.472185    -49.163971   1.000000   1.000000
    8      -54.322119    -49.155027   1.000000   1.000000
    9      -54.320683    -49.131291   1.000000   1.000000
   10      -43.566367    -43.572710   1.000000   1.000000
   11      -43.564512    -43.570810   1.000000   1.000000
   12      -16.202306    -15.703234   1.000000   1.000000
   13      -16.077411    -15.582645   1.000000   1.000000
   14       -9.302375     -8.951094   1.000000   1.000000
   15       -8.904928     -8.588222   1.000000   1.000000
   16       -2.733592     -1.457270   1.000000   1.000000
   17       -2.341234     -0.709700   1.000000   1.000000
   18       -2.082576     -0.501233   1.000000   1.000000
   19       -1.986638     -0.482800   1.000000   1.000000
   20       -1.758065     -0.365661   1.000000   1.000000
   21       -1.410167     -0.118563   1.000000   1.000000
   22       -0.902647      0.783888   1.000000   1.000000
   23       -0.751376      1.740346   1.000000   1.000000
   24       -0.642886      2.080265   1.000000   1.000000
   25       -0.383978      2.378621   1.000000   1.000000
   26       -0.334295      2.698860   1.000000   1.000000
   27       -0.158662      3.094704   1.000000   1.000000
   28       -0.044907      3.120912   1.000000   1.000000
   29       -0.044198      3.881704   1.000000   1.000000
   30        0.481236      4.640376   1.000000   1.000000
   31        0.610169      7.339081   1.000000   0.000000
   32        0.769228      7.638647   1.000000   0.000000
   33        1.054287      7.840728   1.000000   0.000000
   34        1.228804      7.920648   1.000000   0.000000
   35        1.840596      8.297292   1.000000   0.000000
   36        2.058321      8.541763   1.000000   0.000000
   37        2.233890      8.548738   1.000000   0.000000
   38        3.098069      8.788306   1.000000   0.000000
   39        3.295740      8.830565   1.000000   0.000000
   40        3.302731      9.124174   1.000000   0.000000
   41        4.147749      9.523655   1.000000   0.000000
   42        4.188896      9.815718   1.000000   0.000000
   43        8.502551      9.885374   0.000000   0.000000
   44        8.749501     10.377689   0.000000   0.000000
   45        9.975427     10.878428   0.000000   0.000000
   46       10.811768     11.817039   0.000000   0.000000
   47       11.762689     12.344857   0.000000   0.000000
   48       12.744131     13.560363   0.000000   0.000000
   49       13.577087     14.383580   0.000000   0.000000
   50       13.795074     14.725834   0.000000   0.000000
   51       14.083826     15.204829   0.000000   0.000000
   52       14.526922     15.582737   0.000000   0.000000
   53       15.185520     15.694360   0.000000   0.000000
   54       16.352187     16.917709   0.000000   0.000000
   55       16.472772     17.458843   0.000000   0.000000
   56       16.946698     18.791924   0.000000   0.000000

  0.1666667E+00  0.2500000E+00  0.1258850E-14  0.2083333E-01
    1      -56.107839    -49.522990   1.000000   1.000000
    2      -56.106292    -49.519539   1.000000   1.000000
    3      -55.814424    -49.469471   1.000000   1.000000
    4      -54.815284    -49.446286   1.000000   1.000000
    5      -54.813591    -49.444176   1.000000   1.000000
    6      -54.492390    -49.442630   1.000000   1.000000
    7      -54.472211    -49.163902   1.000000   1.000000
    8      -54.322087    -49.155383   1.000000   1.000000
    9      -54.320955    -49.131214   1.000000   1.000000
   10      -43.566187    -43.572518   1.000000   1.000000
   11      -43.564279    -43.570588   1.000000   1.000000
   12      -16.146754    -15.647834   1.000000   1.000000
   13      -16.023445    -15.529740   1.000000   1.000000
   14       -9.239316     -8.891965   1.000000   1.000000
   15       -8.838328     -8.513448   1.000000   1.000000
   16       -2.872821     -1.338469   1.000000   1.000000
   17       -2.650531     -0.852219   1.000000   1.000000
   18       -1.978167     -0.759530   1.000000   1.000000
   19       -1.915902     -0.541136   1.000000   1.000000
   20       -1.538038     -0.306008   1.000000   1.000000
   21       -1.453406     -0.053300   1.000000   1.000000
   22       -1.144265      0.883499   1.000000   1.000000
   23       -0.831594      1.621526   1.000000   1.000000
   24       -0.632473      1.829400   1.000000   1.000000
   25       -0.317662      2.144085   1.000000   1.000000
   26       -0.188088      2.341356   1.000000   1.000000
   27       -0.131526      2.494894   1.000000   1.000000
   28        0.018996      3.101204   1.000000   1.000000
   29        0.070831      4.084300   1.000000   1.000000
   30        0.380159      4.635731   1.000000   1.000000
   31        0.584668      7.471706   1.000000   0.000000
   32        0.718560      7.540500   1.000000   0.000000
   33        0.956973      7.788961   1.000000   0.000000
   34        1.190784      7.859089   1.000000   0.000000
   35        1.325378      7.962421   1.000000   0.000000
   36        1.979565      8.444441   1.000000   0.000000
   37        2.373798      8.653143   1.000000   0.000000
   38        2.598851      8.795701   1.000000   0.000000
   39        3.153270      8.904046   1.000000   0.000000
   40        3.402345      9.104534   1.000000   0.000000
   41        3.566500      9.402100   1.000000   0.000000
   42        4.148447      9.693643   1.000000   0.000000
   43        9.000062     10.483150   0.000000   0.000000
   44        9.301586     11.020189   0.000000   0.000000
   45       10.611360     11.741779   0.000000   0.000000
   46       11.780697     12.357125   0.000000   0.000000
   47       12.262567     12.961348   0.000000   0.000000
   48       12.647365     13.492869   0.000000   0.000000
   49       12.800574     14.160715   0.000000   0.000000
   50       13.597024     14.649523   0.000000   0.000000
   51       13.965299     14.977803   0.000000   0.000000
   52       14.243338     15.579799   0.000000   0.000000
   53       14.603768     16.017217   0.000000   0.000000
   54       14.945608     17.007165   0.000000   0.000000
   55       17.079818     17.460861   0.000000   0.000000
   56       17.494141     18.174041   0.000000   0.000000

  0.3333333E+00  0.2500000E+00  0.1261440E-14  0.2083333E-01
    1      -56.109047    -49.522546   1.000000   1.000000
    2      -56.107466    -49.519036   1.000000   1.000000
    3      -55.814236    -49.469535   1.000000   1.000000
    4      -54.815263    -49.448357   1.000000   1.000000
    5      -54.813570    -49.446130   1.000000   1.000000
    6      -54.492429    -49.442751   1.000000   1.000000
    7      -54.472263    -49.163754   1.000000   1.000000
    8      -54.322019    -49.156107   1.000000   1.000000
    9      -54.321504    -49.131062   1.000000   1.000000
   10      -43.565795    -43.572103   1.000000   1.000000
   11      -43.563829    -43.570161   1.000000   1.000000
   12      -16.032799    -15.534396   1.000000   1.000000
   13      -15.912600    -15.421304   1.000000   1.000000
   14       -9.111246     -8.772422   1.000000   1.000000
   15       -8.696607     -8.353544   1.000000   1.000000
   16       -3.000989     -1.390470   1.000000   1.000000
   17       -2.923857     -1.307436   1.000000   1.000000
   18       -2.109058     -0.799325   1.000000   1.000000
   19       -2.011587     -0.344548   1.000000   1.000000
   20       -1.738056     -0.208760   1.000000   1.000000
   21       -1.329278     -0.030908   1.000000   1.000000
   22       -1.066122      0.904896   1.000000   1.000000
   23       -0.938654      1.102857   1.000000   1.000000
   24       -0.638596      1.189802   1.000000   1.000000
   25       -0.385853      1.677031   1.000000   1.000000
   26       -0.279356      1.943565   1.000000   1.000000
   27       -0.119909      2.067285   1.000000   1.000000
   28        0.076679      3.037277   1.000000   1.000000
   29        0.321475      4.155392   1.000000   1.000000
   30        0.369377      4.624634   1.000000   1.000000
   31        0.483914      7.102223   1.000000   0.000000
   32        0.614300      7.356564   1.000000   0.000000
   33        0.756209      7.618230   1.000000   0.000000
   34        1.137652      7.982250   1.000000   0.000000
   35        1.401976      8.163495   1.000000   0.000000
   36        1.715074      8.410612   1.000000   0.000000
   37        2.047281      8.602234   1.000000   0.000000
   38        2.166021      8.724498   1.000000   0.000000
   39        2.600898      8.902091   1.000000   0.000000
   40        3.249280      9.361112   1.000000   0.000000
   41        3.378837      9.435952   1.000000   0.000000
   42        3.896286      9.652478   1.000000   0.000000
   43        9.934350     11.353126   0.000000   0.000000
   44       10.396726     11.855084   0.000000   0.000000
   45       11.130418     12.118565   0.000000   0.000000
   46       11.713742     12.980173   0.000000   0.000000
   47       12.173298     13.272911   0.000000   0.000000
   48       12.627661     13.460258   0.000000   0.000000
   49       13.030806     13.955463   0.000000   0.000000
   50       13.599447     14.180168   0.000000   0.000000
   51       14.000643     14.685936   0.000000   0.000000
   52       14.368025     15.020499   0.000000   0.000000
   53       14.542438     15.412598   0.000000   0.000000
   54       14.932310     15.705883   0.000000   0.000000
   55       16.874018     17.363953   0.000000   0.000000
   56       17.097611     17.610306   0.000000   0.000000

  0.5000000E+00  0.2500000E+00  0.1261941E-14  0.2083333E-01
    1      -56.109644    -49.522327   1.000000   1.000000
    2      -56.108058    -49.518791   1.000000   1.000000
    3      -55.814149    -49.469567   1.000000   1.000000
    4      -54.815253    -49.449395   1.000000   1.000000
    5      -54.813562    -49.447090   1.000000   1.000000
    6      -54.492457    -49.442829   1.000000   1.000000
    7      -54.472297    -49.163679   1.000000   1.000000
    8      -54.321972    -49.156482   1.000000   1.000000
    9      -54.321797    -49.130995   1.000000   1.000000
   10      -43.565595    -43.571894   1.000000   1.000000
   11      -43.563585    -43.569929   1.000000   1.000000
   12      -15.974308    -15.476293   1.000000   1.000000
   13      -15.855670    -15.365726   1.000000   1.000000
   14       -9.046336     -8.712118   1.000000   1.000000
   15       -8.621018     -8.267762   1.000000   1.000000
   16       -3.100023     -1.613224   1.000000   1.000000
   17       -2.876070     -1.389537   1.000000   1.000000
   18       -2.248623     -0.714006   1.000000   1.000000
   19       -2.198731     -0.412203   1.000000   1.000000
   20       -1.887085     -0.156390   1.000000   1.000000
   21       -1.335192      0.121204   1.000000   1.000000
   22       -1.092368      0.761913   1.000000   1.000000
   23       -0.876300      0.970864   1.000000   1.000000
   24       -0.629974      1.009860   1.000000   1.000000
   25       -0.386115      1.393542   1.000000   1.000000
   26       -0.346020      1.727539   1.000000   1.000000
   27       -0.078865      1.907328   1.000000   1.000000
   28       -0.073671      3.011466   1.000000   1.000000
   29        0.114722      4.148213   1.000000   1.000000
   30        0.534226      4.621148   1.000000   1.000000
   31        0.539843      6.953095   1.000000   0.000000
   32        0.806938      7.250067   1.000000   0.000000
   33        0.816029      7.511882   1.000000   0.000000
   34        1.178899      7.968017   1.000000   0.000000
   35        1.400926      8.400419   1.000000   0.000000
   36        1.550869      8.450652   1.000000   0.000000
   37        1.809258      8.607880   1.000000   0.000000
   38        2.051622      8.686378   1.000000   0.000000
   39        2.513330      8.896553   1.000000   0.000000
   40        3.121310      9.453887   1.000000   0.000000
   41        3.129530      9.480922   1.000000   0.000000
   42        3.870606      9.615608   1.000000   0.000000
   43       10.564716     12.071907   0.000000   0.000000
   44       10.916243     12.080933   0.000000   0.000000
   45       11.379023     12.311431   0.000000   0.000000
   46       11.384384     12.345104   0.000000   0.000000
   47       11.625482     13.240971   0.000000   0.000000
   48       12.285663     13.422917   0.000000   0.000000
   49       13.029243     13.545501   0.000000   0.000000
   50       13.409632     14.160648   0.000000   0.000000
   51       14.160153     15.100807   0.000000   0.000000
   52       14.601216     15.182124   0.000000   0.000000
   53       14.830379     15.802668   0.000000   0.000000
   54       15.424101     16.033665   0.000000   0.000000
   55       16.244340     16.820781   0.000000   0.000000
   56       17.388910     18.254090   0.000000   0.000000

 -0.3333333E+00  0.2500000E+00  0.1261170E-14  0.2083333E-01
    1      -56.109039    -49.522538   1.000000   1.000000
    2      -56.107458    -49.519028   1.000000   1.000000
    3      -55.814228    -49.469528   1.000000   1.000000
    4      -54.815255    -49.448348   1.000000   1.000000
    5      -54.813562    -49.446123   1.000000   1.000000
    6      -54.492421    -49.442744   1.000000   1.000000
    7      -54.472254    -49.163747   1.000000   1.000000
    8      -54.322011    -49.156100   1.000000   1.000000
    9      -54.321496    -49.131054   1.000000   1.000000
   10      -43.565782    -43.572090   1.000000   1.000000
   11      -43.563815    -43.570148   1.000000   1.000000
   12      -16.032788    -15.534385   1.000000   1.000000
   13      -15.912593    -15.421298   1.000000   1.000000
   14       -9.111179     -8.772382   1.000000   1.000000
   15       -8.696695     -8.353605   1.000000   1.000000
   16       -3.000855     -1.390141   1.000000   1.000000
   17       -2.923824     -1.307119   1.000000   1.000000
   18       -2.109142     -0.799630   1.000000   1.000000
   19       -2.011670     -0.344758   1.000000   1.000000
   20       -1.738159     -0.208284   1.000000   1.000000
   21       -1.329187     -0.031172   1.000000   1.000000
   22       -1.065615      0.905447   1.000000   1.000000
   23       -0.939471      1.101391   1.000000   1.000000
   24       -0.638055      1.190213   1.000000   1.000000
   25       -0.384770      1.676974   1.000000   1.000000
   26       -0.279201      1.943759   1.000000   1.000000
   27       -0.119844      2.067317   1.000000   1.000000
   28        0.076535      3.037139   1.000000   1.000000
   29        0.319847      4.155555   1.000000   1.000000
   30        0.369545      4.624878   1.000000   1.000000
   31        0.484490      7.101630   1.000000   0.000000
   32        0.613656      7.355939   1.000000   0.000000
   33        0.757030      7.619362   1.000000   0.000000
   34        1.137242      7.982379   1.000000   0.000000
   35        1.402296      8.162194   1.000000   0.000000
   36        1.714839      8.411734   1.000000   0.000000
   37        2.046987      8.601716   1.000000   0.000000
   38        2.165515      8.723774   1.000000   0.000000
   39        2.600290      8.902141   1.000000   0.000000
   40        3.249147      9.361586   1.000000   0.000000
   41        3.381527      9.437131   1.000000   0.000000
   42        3.894820      9.652137   1.000000   0.000000
   43        9.934375     11.353061   0.000000   0.000000
   44       10.396497     11.855184   0.000000   0.000000
   45       11.131340     12.118587   0.000000   0.000000
   46       11.713693     12.979793   0.000000   0.000000
   47       12.173238     13.273682   0.000000   0.000000
   48       12.628310     13.460208   0.000000   0.000000
   49       13.030168     13.955232   0.000000   0.000000
   50       13.601005     14.182606   0.000000   0.000000
   51       13.998792     14.684803   0.000000   0.000000
   52       14.369417     15.021309   0.000000   0.000000
   53       14.542590     15.409110   0.000000   0.000000
   54       14.930934     15.707141   0.000000   0.000000
   55       16.876668     17.367526   0.000000   0.000000
   56       17.157352     17.607761   0.000000   0.000000
