 vasp.6.2.0 18Jan21 (build Feb  9 2021 11:43:09) complex                         
 executed on       CrayXC_GCC_OMP date 2021.05.04  22:38:24
 running  416 mpi-ranks, with    1 threads/rank
 distrk:  each k-point on    8 cores,   52 groups
 distr:  one band on NCORE=   1 cores,    8 groups


--------------------------------------------------------------------------------------------------------


 INCAR:
   AEXX = 0.25
   ALGO = all
   EDIFF = 9e-06
   EDIFFG = -0.03
   ENCUT = 520
   GGA = pe
   HFSCREEN = 0.207
   IBRION = 2
   ISIF = 3
   ISMEAR = 0
   ISPIN = 2
   KPAR = 52
   LASPH = .TRUE.
   LHFCALC = .TRUE.
   LMAXFOCK = 4
   LORBIT = 11
   LREAL = .FALSE.
   LVHAR = .TRUE.
   LWAVE = .TRUE.
   MAGMOM = 0.6 0.6 0.6 0.6 0.6 0.6 5 5 5
   NCORE = 1
   NEDOS = 2000
   NELM = 200
   NELMIN = 4
   NSW = 60
   NWRITE = 1
   PREC = accurate
   PRECFOCK = fast
   SIGMA = 0.05
   SYMPREC = 1e-07
   TIME = 0.3

 POTCAR:    PAW_PBE Li_sv 10Sep2004               
 POTCAR:    PAW_PBE O 08Apr2002                   
 POTCAR:    PAW_PBE S 06Sep2000                   
 POTCAR:    PAW_PBE Fe_pv 02Aug2007               
 POTCAR:    PAW_PBE Li_sv 10Sep2004               
  local pseudopotential read in
  atomic valenz-charges read in
  non local Contribution for L=           0  read in
    real space projection operators read in
  non local Contribution for L=           0  read in
    real space projection operators read in
  non local Contribution for L=           1  read in
    real space projection operators read in
    PAW grid and wavefunctions read in

   number of l-projection  operators is LMAX  =           3
   number of lm-projection operators is LMMAX =           5

 POTCAR:    PAW_PBE O 08Apr2002                   
  local pseudopotential read in
  partial core-charges read in
  partial kinetic energy density read in
  kinetic energy density of atom read in
  atomic valenz-charges read in
  non local Contribution for L=           0  read in
    real space projection operators read in
  non local Contribution for L=           0  read in
    real space projection operators read in
  non local Contribution for L=           1  read in
    real space projection operators read in
  non local Contribution for L=           1  read in
    real space projection operators read in
    PAW grid and wavefunctions read in

   number of l-projection  operators is LMAX  =           4
   number of lm-projection operators is LMMAX =           8

 POTCAR:    PAW_PBE S 06Sep2000                   
  local pseudopotential read in
  partial core-charges read in
  partial kinetic energy density read in
  atomic valenz-charges read in
  non local Contribution for L=           0  read in
    real space projection operators read in
  non local Contribution for L=           0  read in
    real space projection operators read in
  non local Contribution for L=           1  read in
    real space projection operators read in
  non local Contribution for L=           1  read in
    real space projection operators read in
    PAW grid and wavefunctions read in

   number of l-projection  operators is LMAX  =           4
   number of lm-projection operators is LMMAX =           8

 POTCAR:    PAW_PBE Fe_pv 02Aug2007               
  local pseudopotential read in
  partial core-charges read in
  partial kinetic energy density read in
  atomic valenz-charges read in
  non local Contribution for L=           1  read in
    real space projection operators read in
  non local Contribution for L=           1  read in
    real space projection operators read in
  non local Contribution for L=           2  read in
    real space projection operators read in
  non local Contribution for L=           2  read in
    real space projection operators read in
  non local Contribution for L=           0  read in
    real space projection operators read in
  non local Contribution for L=           0  read in
    real space projection operators read in
    PAW grid and wavefunctions read in

   number of l-projection  operators is LMAX  =           6
   number of lm-projection operators is LMMAX =          18

  PAW_PBE Li_sv 10Sep2004               :
 energy of atom  1       EATOM= -202.7858
 kinetic energy error for atom=    0.0130 (will be added to EATOM!!)
  PAW_PBE O 08Apr2002                   :
 energy of atom  2       EATOM= -432.3788
 kinetic energy error for atom=    0.0208 (will be added to EATOM!!)
  PAW_PBE S 06Sep2000                   :
 energy of atom  3       EATOM= -276.8230
 kinetic energy error for atom=    0.0016 (will be added to EATOM!!)
  PAW_PBE Fe_pv 02Aug2007               :
 energy of atom  4       EATOM=-2457.4239
 kinetic energy error for atom=    0.0062 (will be added to EATOM!!)


 POSCAR: # Compound: Li2O2S2Fe3. Old comment: LFS
  positions in direct lattice
  No initial velocities read in
 exchange correlation table for  LEXCH =        8
   RHO(1)=    0.500       N(1)  =     2000
   RHO(2)=  100.500       N(2)  =     4000



--------------------------------------------------------------------------------------------------------


 ion  position               nearest neighbor table
   1  0.318  0.538  0.953-   4 1.99   3 2.01   6 2.53   6 2.53
   2  0.318  0.953  0.538-   3 1.99   4 2.01   6 2.53   6 2.53
   3  0.318  0.239  0.750-   8 1.98   8 1.98   2 1.99   9 1.99   1 2.01
   4  0.318  0.750  0.239-   7 1.98   7 1.98   1 1.99   9 1.99   2 2.01
   5  0.819  0.236  0.236-   8 2.48   7 2.48   9 2.48   9 2.48
   6  0.818  0.750  0.749-   1 2.53   7 2.53   8 2.53   2 2.53   1 2.53   2 2.53
   7  0.818  0.672  0.306-   4 1.98   4 1.98   5 2.48   6 2.53
   8  0.818  0.306  0.672-   3 1.98   3 1.98   5 2.48   6 2.53
   9  0.319  0.033  0.033-   3 1.99   4 1.99   5 2.48   5 2.48

  LATTYP: Found a triclinic cell.
 ALAT       =     9.4499950416
 B/A-ratio  =     0.4013779770
 C/A-ratio  =     1.3447276920
 COS(alpha) =     0.0000030385
 COS(beta)  =     0.5344964700
 COS(gamma) =     0.8027744560
  
  Lattice vectors:
  
 A1 = (  -7.5861206500,   0.1625783500,  -5.6326501800)
 A2 = (  -3.7930198900,  -0.0001074800,  -0.0000663900)
 A3 = (  -0.0000110500,   5.9599563600, -11.2233594600)


Analysis of symmetry for initial positions (statically):
=====================================================================
 Subroutine PRICEL returns:
 Original cell was already a primitive cell.
 

 Routine SETGRP: Setting up the symmetry group for a 
 triclinic supercell.


 Subroutine GETGRP returns: Found  1 space group operations
 (whereof  1 operations were pure point group operations)
 out of a pool of  2 trial point group operations.


The static configuration has the point symmetry C_1 .


Analysis of symmetry for dynamics (positions and initial velocities):
=====================================================================
 Subroutine PRICEL returns:
 Original cell was already a primitive cell.
 

 Routine SETGRP: Setting up the symmetry group for a 
 triclinic supercell.


 Subroutine GETGRP returns: Found  1 space group operations
 (whereof  1 operations were pure point group operations)
 out of a pool of  2 trial point group operations.


The dynamic configuration has the point symmetry C_1 .


Analysis of structural, dynamic, and magnetic symmetry:
=====================================================================
 Subroutine PRICEL returns:
 Original cell was already a primitive cell.
 

 Routine SETGRP: Setting up the symmetry group for a 
 triclinic supercell.


 Subroutine GETGRP returns: Found  1 space group operations
 (whereof  1 operations were pure point group operations)
 out of a pool of  2 trial point group operations.


The overall configuration has the point symmetry C_1 .


 Subroutine INISYM returns: Found  1 space group operations
 (whereof  1 operations are pure point group operations),
 and found     1 'primitive' translations


----------------------------------------------------------------------------------------

                                     Primitive cell                                     

  volume of cell :     120.3998

  direct lattice vectors                    reciprocal lattice vectors
     3.793019890  0.000107480  0.000066390     0.263642172 -0.000007022 -0.000003988
     0.000150690  5.634369740  0.041675340    -0.000005118  0.177444206  0.005128565
     0.000080870 -0.162793310  5.632517400    -0.000003070 -0.001312920  0.177502561

  length of vectors
     3.793019892  5.634523868  5.634869469     0.263642172  0.177518305  0.177507417

  position of ions in fractional coordinates (direct lattice)
     0.317766510  0.538195410  0.953024140
     0.317766830  0.953227690  0.538003830
     0.318050730  0.239491390  0.750313880
     0.318067700  0.750351610  0.239322300
     0.818612990  0.236213900  0.236247720
     0.818013780  0.749527230  0.749354690
     0.818181550  0.672346510  0.305878840
     0.818173690  0.305989570  0.672269980
     0.318759920  0.033063240  0.032959440

  ion indices of the primitive-cell ions
   primitive index   ion index
                 1           1
                 2           2
                 3           3
                 4           4
                 5           5
                 6           6
                 7           7
                 8           8
                 9           9

----------------------------------------------------------------------------------------



 KPOINTS: # No comment                            

Automatic generation of k-mesh.
 Grid dimensions read from file:
 generate k-points for:    6    4    4

 Generating k-lattice:

  Cartesian coordinates                     Fractional coordinates (reciprocal lattice)
     0.043940362 -0.000001170 -0.000000665     0.166666667  0.000000000 -0.000000000
    -0.000001279  0.044361052  0.001282141     0.000000000  0.250000000  0.000000000
    -0.000000767 -0.000328230  0.044375640     0.000000000 -0.000000000  0.250000000

  Length of vectors
     0.043940362  0.044379576  0.044376854

  Shift w.r.t. Gamma in fractional coordinates (k-lattice)
     0.000000000  0.000000000  0.000000000

 
 Subroutine IBZKPT returns following result:
 ===========================================
 
 Found     52 irreducible k-points:
 
 Following reciprocal coordinates:
            Coordinates               Weight
  0.000000  0.000000  0.000000      1.000000
  0.166667  0.000000  0.000000      2.000000
  0.333333  0.000000  0.000000      2.000000
  0.500000  0.000000  0.000000      1.000000
  0.000000  0.250000  0.000000      2.000000
  0.166667  0.250000  0.000000      2.000000
  0.333333  0.250000  0.000000      2.000000
  0.500000  0.250000  0.000000      2.000000
 -0.333333  0.250000  0.000000      2.000000
 -0.166667  0.250000  0.000000      2.000000
  0.000000  0.500000  0.000000      1.000000
  0.166667  0.500000  0.000000      2.000000
  0.333333  0.500000  0.000000      2.000000
  0.500000  0.500000  0.000000      1.000000
  0.000000  0.000000  0.250000      2.000000
  0.166667  0.000000  0.250000      2.000000
  0.333333  0.000000  0.250000      2.000000
  0.500000  0.000000  0.250000      2.000000
 -0.333333  0.000000  0.250000      2.000000
 -0.166667  0.000000  0.250000      2.000000
  0.000000  0.250000  0.250000      2.000000
  0.166667  0.250000  0.250000      2.000000
  0.333333  0.250000  0.250000      2.000000
  0.500000  0.250000  0.250000      2.000000
 -0.333333  0.250000  0.250000      2.000000
 -0.166667  0.250000  0.250000      2.000000
  0.000000  0.500000  0.250000      2.000000
  0.166667  0.500000  0.250000      2.000000
  0.333333  0.500000  0.250000      2.000000
  0.500000  0.500000  0.250000      2.000000
 -0.333333  0.500000  0.250000      2.000000
 -0.166667  0.500000  0.250000      2.000000
  0.000000 -0.250000  0.250000      2.000000
  0.166667 -0.250000  0.250000      2.000000
  0.333333 -0.250000  0.250000      2.000000
  0.500000 -0.250000  0.250000      2.000000
 -0.333333 -0.250000  0.250000      2.000000
 -0.166667 -0.250000  0.250000      2.000000
  0.000000  0.000000  0.500000      1.000000
  0.166667  0.000000  0.500000      2.000000
  0.333333  0.000000  0.500000      2.000000
  0.500000  0.000000  0.500000      1.000000
  0.000000  0.250000  0.500000      2.000000
  0.166667  0.250000  0.500000      2.000000
  0.333333  0.250000  0.500000      2.000000
  0.500000  0.250000  0.500000      2.000000
 -0.333333  0.250000  0.500000      2.000000
 -0.166667  0.250000  0.500000      2.000000
  0.000000  0.500000  0.500000      1.000000
  0.166667  0.500000  0.500000      2.000000
  0.333333  0.500000  0.500000      2.000000
  0.500000  0.500000  0.500000      1.000000
 
 Following cartesian coordinates:
            Coordinates               Weight
  0.000000  0.000000  0.000000      1.000000
  0.043940 -0.000001 -0.000001      2.000000
  0.087881 -0.000002 -0.000001      2.000000
  0.131821 -0.000004 -0.000002      1.000000
 -0.000001  0.044361  0.001282      2.000000
  0.043939  0.044360  0.001281      2.000000
  0.087879  0.044359  0.001281      2.000000
  0.131820  0.044358  0.001280      2.000000
 -0.087882  0.044363  0.001283      2.000000
 -0.043942  0.044362  0.001283      2.000000
 -0.000003  0.088722  0.002564      1.000000
  0.043938  0.088721  0.002564      2.000000
  0.087878  0.088720  0.002563      2.000000
  0.131819  0.088719  0.002562      1.000000
 -0.000001 -0.000328  0.044376      2.000000
  0.043940 -0.000329  0.044375      2.000000
  0.087880 -0.000331  0.044374      2.000000
  0.131820 -0.000332  0.044374      2.000000
 -0.087881 -0.000326  0.044377      2.000000
 -0.043941 -0.000327  0.044376      2.000000
 -0.000002  0.044033  0.045658      2.000000
  0.043938  0.044032  0.045657      2.000000
  0.087879  0.044030  0.045656      2.000000
  0.131819  0.044029  0.045656      2.000000
 -0.087883  0.044035  0.045659      2.000000
 -0.043942  0.044034  0.045658      2.000000
 -0.000003  0.088394  0.046940      2.000000
  0.043937  0.088393  0.046939      2.000000
  0.087877  0.088392  0.046939      2.000000
  0.131818  0.088390  0.046938      2.000000
 -0.087884  0.088396  0.046941      2.000000
 -0.043944  0.088395  0.046941      2.000000
  0.000001 -0.044689  0.043093      2.000000
  0.043941 -0.044690  0.043093      2.000000
  0.087881 -0.044692  0.043092      2.000000
  0.131822 -0.044693  0.043092      2.000000
 -0.087880 -0.044687  0.043095      2.000000
 -0.043940 -0.044688  0.043094      2.000000
 -0.000002 -0.000656  0.088751      1.000000
  0.043939 -0.000658  0.088751      2.000000
  0.087879 -0.000659  0.088750      2.000000
  0.131820 -0.000660  0.088749      1.000000
 -0.000003  0.043705  0.090033      2.000000
  0.043938  0.043703  0.090033      2.000000
  0.087878  0.043702  0.090032      2.000000
  0.131818  0.043701  0.090031      2.000000
 -0.087884  0.043707  0.090035      2.000000
 -0.043943  0.043706  0.090034      2.000000
 -0.000004  0.088066  0.091316      1.000000
  0.043936  0.088064  0.091315      2.000000
  0.087877  0.088063  0.091314      2.000000
  0.131817  0.088062  0.091314      1.000000
 
 
 Subroutine IBZKPT_HF returns following result:
 ==============================================
 
 Found     96 k-points in 1st BZ
 the following     96 k-points will be used (e.g. in the exchange kernel)
 Following reciprocal coordinates:   # in IRBZ
  0.000000  0.000000  0.000000    0.01041667   1 t-inv F
  0.166667  0.000000  0.000000    0.01041667   2 t-inv F
  0.333333  0.000000  0.000000    0.01041667   3 t-inv F
  0.500000  0.000000  0.000000    0.01041667   4 t-inv F
  0.000000  0.250000  0.000000    0.01041667   5 t-inv F
  0.166667  0.250000  0.000000    0.01041667   6 t-inv F
  0.333333  0.250000  0.000000    0.01041667   7 t-inv F
  0.500000  0.250000  0.000000    0.01041667   8 t-inv F
 -0.333333  0.250000  0.000000    0.01041667   9 t-inv F
 -0.166667  0.250000  0.000000    0.01041667  10 t-inv F
  0.000000  0.500000  0.000000    0.01041667  11 t-inv F
  0.166667  0.500000  0.000000    0.01041667  12 t-inv F
  0.333333  0.500000  0.000000    0.01041667  13 t-inv F
  0.500000  0.500000  0.000000    0.01041667  14 t-inv F
  0.000000  0.000000  0.250000    0.01041667  15 t-inv F
  0.166667  0.000000  0.250000    0.01041667  16 t-inv F
  0.333333  0.000000  0.250000    0.01041667  17 t-inv F
  0.500000  0.000000  0.250000    0.01041667  18 t-inv F
 -0.333333  0.000000  0.250000    0.01041667  19 t-inv F
 -0.166667  0.000000  0.250000    0.01041667  20 t-inv F
  0.000000  0.250000  0.250000    0.01041667  21 t-inv F
  0.166667  0.250000  0.250000    0.01041667  22 t-inv F
  0.333333  0.250000  0.250000    0.01041667  23 t-inv F
  0.500000  0.250000  0.250000    0.01041667  24 t-inv F
 -0.333333  0.250000  0.250000    0.01041667  25 t-inv F
 -0.166667  0.250000  0.250000    0.01041667  26 t-inv F
  0.000000  0.500000  0.250000    0.01041667  27 t-inv F
  0.166667  0.500000  0.250000    0.01041667  28 t-inv F
  0.333333  0.500000  0.250000    0.01041667  29 t-inv F
  0.500000  0.500000  0.250000    0.01041667  30 t-inv F
 -0.333333  0.500000  0.250000    0.01041667  31 t-inv F
 -0.166667  0.500000  0.250000    0.01041667  32 t-inv F
  0.000000 -0.250000  0.250000    0.01041667  33 t-inv F
  0.166667 -0.250000  0.250000    0.01041667  34 t-inv F
  0.333333 -0.250000  0.250000    0.01041667  35 t-inv F
  0.500000 -0.250000  0.250000    0.01041667  36 t-inv F
 -0.333333 -0.250000  0.250000    0.01041667  37 t-inv F
 -0.166667 -0.250000  0.250000    0.01041667  38 t-inv F
  0.000000  0.000000  0.500000    0.01041667  39 t-inv F
  0.166667  0.000000  0.500000    0.01041667  40 t-inv F
  0.333333  0.000000  0.500000    0.01041667  41 t-inv F
  0.500000  0.000000  0.500000    0.01041667  42 t-inv F
  0.000000  0.250000  0.500000    0.01041667  43 t-inv F
  0.166667  0.250000  0.500000    0.01041667  44 t-inv F
  0.333333  0.250000  0.500000    0.01041667  45 t-inv F
  0.500000  0.250000  0.500000    0.01041667  46 t-inv F
 -0.333333  0.250000  0.500000    0.01041667  47 t-inv F
 -0.166667  0.250000  0.500000    0.01041667  48 t-inv F
  0.000000  0.500000  0.500000    0.01041667  49 t-inv F
  0.166667  0.500000  0.500000    0.01041667  50 t-inv F
  0.333333  0.500000  0.500000    0.01041667  51 t-inv F
  0.500000  0.500000  0.500000    0.01041667  52 t-inv F
 -0.166667 -0.000000 -0.000000    0.01041667   2 t-inv T
 -0.333333 -0.000000 -0.000000    0.01041667   3 t-inv T
 -0.000000 -0.250000 -0.000000    0.01041667   5 t-inv T
 -0.166667 -0.250000 -0.000000    0.01041667   6 t-inv T
 -0.333333 -0.250000 -0.000000    0.01041667   7 t-inv T
 -0.500000 -0.250000 -0.000000    0.01041667   8 t-inv T
  0.333333 -0.250000 -0.000000    0.01041667   9 t-inv T
  0.166667 -0.250000 -0.000000    0.01041667  10 t-inv T
 -0.166667 -0.500000 -0.000000    0.01041667  12 t-inv T
 -0.333333 -0.500000 -0.000000    0.01041667  13 t-inv T
 -0.000000 -0.000000 -0.250000    0.01041667  15 t-inv T
 -0.166667 -0.000000 -0.250000    0.01041667  16 t-inv T
 -0.333333 -0.000000 -0.250000    0.01041667  17 t-inv T
 -0.500000 -0.000000 -0.250000    0.01041667  18 t-inv T
  0.333333 -0.000000 -0.250000    0.01041667  19 t-inv T
  0.166667 -0.000000 -0.250000    0.01041667  20 t-inv T
 -0.000000 -0.250000 -0.250000    0.01041667  21 t-inv T
 -0.166667 -0.250000 -0.250000    0.01041667  22 t-inv T
 -0.333333 -0.250000 -0.250000    0.01041667  23 t-inv T
 -0.500000 -0.250000 -0.250000    0.01041667  24 t-inv T
  0.333333 -0.250000 -0.250000    0.01041667  25 t-inv T
  0.166667 -0.250000 -0.250000    0.01041667  26 t-inv T
 -0.000000 -0.500000 -0.250000    0.01041667  27 t-inv T
 -0.166667 -0.500000 -0.250000    0.01041667  28 t-inv T
 -0.333333 -0.500000 -0.250000    0.01041667  29 t-inv T
 -0.500000 -0.500000 -0.250000    0.01041667  30 t-inv T
  0.333333 -0.500000 -0.250000    0.01041667  31 t-inv T
  0.166667 -0.500000 -0.250000    0.01041667  32 t-inv T
 -0.000000  0.250000 -0.250000    0.01041667  33 t-inv T
 -0.166667  0.250000 -0.250000    0.01041667  34 t-inv T
 -0.333333  0.250000 -0.250000    0.01041667  35 t-inv T
 -0.500000  0.250000 -0.250000    0.01041667  36 t-inv T
  0.333333  0.250000 -0.250000    0.01041667  37 t-inv T
  0.166667  0.250000 -0.250000    0.01041667  38 t-inv T
 -0.166667 -0.000000 -0.500000    0.01041667  40 t-inv T
 -0.333333 -0.000000 -0.500000    0.01041667  41 t-inv T
 -0.000000 -0.250000 -0.500000    0.01041667  43 t-inv T
 -0.166667 -0.250000 -0.500000    0.01041667  44 t-inv T
 -0.333333 -0.250000 -0.500000    0.01041667  45 t-inv T
 -0.500000 -0.250000 -0.500000    0.01041667  46 t-inv T
  0.333333 -0.250000 -0.500000    0.01041667  47 t-inv T
  0.166667 -0.250000 -0.500000    0.01041667  48 t-inv T
 -0.166667 -0.500000 -0.500000    0.01041667  50 t-inv T
 -0.333333 -0.500000 -0.500000    0.01041667  51 t-inv T


--------------------------------------------------------------------------------------------------------




 Dimension of arrays:
   k-points           NKPTS =     52   k-points in BZ     NKDIM =     96   number of bands    NBANDS=     56
   number of dos      NEDOS =   2000   number of ions     NIONS =      9
   non local maximal  LDIM  =      6   non local SUM 2l+1 LMDIM =     18
   total plane-waves  NPLWV =  49392
   max r-space proj   IRMAX =      1   max aug-charges    IRDMAX=  13122
   dimension x,y,z NGX =    28 NGY =   42 NGZ =   42
   dimension x,y,z NGXF=    56 NGYF=   84 NGZF=   84
   support grid    NGXF=    56 NGYF=   84 NGZF=   84
   ions per type =               2   2   2   3
   NGX,Y,Z   is equivalent  to a cutoff of  12.27, 12.39, 12.39 a.u.
   NGXF,Y,Z  is equivalent  to a cutoff of  24.54, 24.78, 24.78 a.u.

 SYSTEM =  unknown system                          
 POSCAR =  # Compound: Li2O2S2Fe3. Old comment: LFS

 Startparameter for this run:
   NWRITE =      1    write-flag & timer
   PREC   = accura    normal or accurate (medium, high low for compatibility)
   ISTART =      0    job   : 0-new  1-cont  2-samecut
   ICHARG =      2    charge: 1-file 2-atom 10-const
   ISPIN  =      2    spin polarized calculation?
   LNONCOLLINEAR =      F non collinear calculations
   LSORBIT =      F    spin-orbit coupling
   INIWAV =      1    electr: 0-lowe 1-rand  2-diag
   LASPH  =      T    aspherical Exc in radial PAW
   METAGGA=      F    non-selfconsistent MetaGGA calc.

 Electronic Relaxation 1
   ENCUT  =  520.0 eV  38.22 Ry    6.18 a.u.   7.05 10.48 10.48*2*pi/ulx,y,z
   ENINI  =  520.0     initial cutoff
   ENAUG  =  628.9 eV  augmentation charge cutoff
   NELM   =    200;   NELMIN=  4; NELMDL= -5     # of ELM steps 
   EDIFF  = 0.9E-05   stopping-criterion for ELM
   LREAL  =      F    real-space projection
   NLSPLINE    = F    spline interpolate recip. space projectors
   LCOMPAT=      F    compatible to vasp.4.4
   GGA_COMPAT  = T    GGA compatible to vasp.4.4-vasp.4.6
   LMAXPAW     = -100 max onsite density
   LMAXMIX     =    2 max onsite mixed and CHGCAR
   VOSKOWN=      0    Vosko Wilk Nusair interpolation
   ROPT   =    0.00000   0.00000   0.00000   0.00000
 Ionic relaxation
   EDIFFG = -.3E-01   stopping-criterion for IOM
   NSW    =     60    number of steps for IOM
   NBLOCK =      1;   KBLOCK =     60    inner block; outer block 
   IBRION =      2    ionic relax: 0-MD 1-quasi-New 2-CG
   NFREE  =      1    steps in history (QN), initial steepest desc. (CG)
   ISIF   =      3    stress and relaxation
   IWAVPR =     11    prediction:  0-non 1-charg 2-wave 3-comb
   ISYM   =      3    0-nonsym 1-usesym 2-fastsym
   LCORR  =      T    Harris-Foulkes like correction to forces

   POTIM  = 0.5000    time-step for ionic-motion
   TEIN   =    0.0    initial temperature
   TEBEG  =    0.0;   TEEND  =   0.0 temperature during run
   SMASS  =  -3.00    Nose mass-parameter (am)
   estimated Nose-frequenzy (Omega)   =  0.10E-29 period in steps = 0.13E+47 mass=  -0.329E-27a.u.
   SCALEE = 1.0000    scale energy and forces
   NPACO  =    256;   APACO  = 16.0  distance and # of slots for P.C.
   PSTRESS=    0.0 pullay stress

  Mass of Ions in am
   POMASS =   7.01 16.00 32.07 55.85
  Ionic Valenz
   ZVAL   =   3.00  6.00  6.00 14.00
  Atomic Wigner-Seitz radii
   RWIGS  =  -1.00 -1.00 -1.00 -1.00
  virtual crystal weights 
   VCA    =   1.00  1.00  1.00  1.00
   NELECT =      72.0000    total number of electrons
   NUPDOWN=      -1.0000    fix difference up-down

 DOS related values:
   EMIN   =  10.00;   EMAX   =-10.00  energy-range for DOS
   EFERMI =   0.00
   ISMEAR =     0;   SIGMA  =   0.05  broadening in eV -4-tet -1-fermi 0-gaus

 Electronic relaxation 2 (details)
   IALGO  =     58    algorithm
   LDIAG  =      T    sub-space diagonalisation (order eigenvalues)
   LSUBROT=      F    optimize rotation matrix (better conditioning)
   TURBO    =      0    0=normal 1=particle mesh
   IRESTART =      0    0=no restart 2=restart with 2 vectors
   NREBOOT  =      0    no. of reboots
   NMIN     =      0    reboot dimension
   EREF     =   0.00    reference energy to select bands
   IMIX   =      4    mixing-type and parameters
     AMIX     =   0.40;   BMIX     =  1.00
     AMIX_MAG =   1.60;   BMIX_MAG =  1.00
     AMIN     =   0.10
     WC   =   100.;   INIMIX=   1;  MIXPRE=   1;  MAXMIX= -45

 Intra band minimization:
   WEIMIN = 0.0010     energy-eigenvalue tresh-hold
   EBREAK =  0.40E-07  absolut break condition
   DEPER  =   0.30     relativ break condition  

   TIME   =   0.30     timestep for ELM

  volume/ion in A,a.u.               =      13.38        90.28
  Fermi-wavevector in a.u.,A,eV,Ry     =   1.379252  2.606409 25.882865  1.902337
  Thomas-Fermi vector in A             =   2.504239

 Write flags
   LWAVE        =      T    write WAVECAR
   LDOWNSAMPLE  =      F    k-point downsampling of WAVECAR
   LCHARG       =      T    write CHGCAR
   LVTOT        =      F    write LOCPOT, total local potential
   LVHAR        =      T    write LOCPOT, Hartree potential only
   LELF         =      F    write electronic localiz. function (ELF)
   LORBIT       =     11    0 simple, 1 ext, 2 COOP (PROOUT), +10 PAW based schemes


 Dipole corrections
   LMONO  =      F    monopole corrections only (constant potential shift)
   LDIPOL =      F    correct potential (dipole corrections)
   IDIPOL =      0    1-x, 2-y, 3-z, 4-all directions 
   EPSILON=  1.0000000 bulk dielectric constant

 Exchange correlation treatment:
   GGA     =    PE    GGA type
   LEXCH   =     8    internal setting for exchange type
   VOSKOWN=      0    Vosko Wilk Nusair interpolation
   EXXOEP  =     0    0=HF, 1=EXX-LHF (local Hartree Fock) 2=EXX OEP
   LHFCALC =     T    Hartree Fock is set to
   LSYMGRAD=     F    symmetrize gradient (conserves proper symmetry)
   PRECFOCK=fast      Normal, Fast or Accurate (Low or Medium for compatibility)
   LRHFCALC=     F    long range Hartree Fock
   LRSCOR  =     F    long range correlation only (use DFT for short range part)
   LTHOMAS =     F    Thomas Fermi screening in HF
   LMODELHF=     F    short range full HF, long range fraction AEXX
   LFOCKACE=     T    use Adeptively-Compressed-Exchange operator
   ENCUT4O =  -1.0   cutoff for four orbital integrals eV
   LMAXFOCK=     4    L truncation for augmentation on plane wave grid
   LMAXFOCKAE=  -1    L truncation for all-electron charge restoration on plane wave grid
   NMAXFOCKAE=   1    number of basis functions for all-electron charge restoration
   LFOCKAEDFT=     F  apply the AE augmentation even for DFT
   NKREDX  =     1    reduce k-point grid by
   NKREDY  =     1    reduce k-point grid by
   NKREDZ  =     1    reduce k-point grid by
   SHIFTRED=     F    shift reduced grid of Gamma
   HFKIDENT=     F    idential grid for each k-point
   ODDONLY =     F    use only odd q-grid points
   EVENONLY=     F    use only even q-grid points
   HFALPHA =   -1.0000 decay constant for conv. correction
   MCALPHA =    0.0000 extent of test-charge in conv. correction in multipole expansion
   AEXX    =    0.2500 exact exchange contribution
   HFSCREEN=    0.2070 screening length (either q_TF or 0.3 A-1)
   HFSCREENC=   0.2070 screening length for correlation (either q_TF or 0.3 A-1)
   HFRCUT  =    0.0000 spherical cutoff for potential kernel
   ALDAX   =    0.7500 LDA exchange part
   AGGAX   =    0.7500 GGA exchange part
   ALDAC   =    1.0000 LDA correlation
   AGGAC   =    1.0000 GGA correlation
   ENCUTFOCK=  -1.0 apply spherical cutoff to Coloumb kernel
   NBANDSGWLOW=     1    first orbital included in HF term
   NBLOCK_FOCK=    64    blocking factor in FOCK_ACC
 Linear response parameters
   LEPSILON=     F    determine dielectric tensor
   LRPA    =     F    only Hartree local field effects (RPA)
   LNABLA  =     F    use nabla operator in PAW spheres
   LVEL    =     F    velocity operator in full k-point grid
   LINTERFAST=   F  fast interpolation
   KINTER  =     0    interpolate to denser k-point grid
   CSHIFT  =0.1000    complex shift for real part using Kramers Kronig
   OMEGAMAX=  -1.0    maximum frequency
   DEG_THRESHOLD= 0.2000000E-02 threshold for treating states as degnerate
   RTIME   =   -0.100 relaxation time in fs
  (WPLASMAI=    0.000 imaginary part of plasma frequency in eV, 0.658/RTIME)
   DFIELD  = 0.0000000 0.0000000 0.0000000 field for delta impulse in time

 Orbital magnetization related:
   ORBITALMAG=     F  switch on orbital magnetization
   LCHIMAG   =     F  perturbation theory with respect to B field
   DQ        =  0.001000  dq finite difference perturbation B field
   LLRAUG    =     F  two centre corrections for induced B field



--------------------------------------------------------------------------------------------------------


 conjugate gradient relaxation of ions
 charge density and potential will be updated during run
 spin polarized calculation
 Conjugate gradient for all bands (Freysoldt, et al. PRB 79, 241103 (2009))
 preconditioned conjugated gradient                                        
 perform sub-space diagonalisation
    before iterative eigenvector-optimisation
 modified Broyden-mixing scheme, WC =      100.0
 initial mixing is a Kerker type mixing with AMIX =  0.4000 and BMIX =      1.0000
 Hartree-type preconditioning will be used
 using additional bands           20
 reciprocal scheme for non local part
 use partial core corrections
 no Harris-corrections to forces 
 use gradient corrections 
 use of overlap-Matrix (Vanderbilt PP)
 Gauss-broadening in eV      SIGMA  =   0.05


--------------------------------------------------------------------------------------------------------


  energy-cutoff  :      520.00
  volume of cell :      120.40
      direct lattice vectors                 reciprocal lattice vectors
     3.793019890  0.000107480  0.000066390     0.263642172 -0.000007022 -0.000003988
     0.000150690  5.634369740  0.041675340    -0.000005118  0.177444206  0.005128565
     0.000080870 -0.162793310  5.632517400    -0.000003070 -0.001312920  0.177502561

  length of vectors
     3.793019892  5.634523868  5.634869469     0.263642172  0.177518305  0.177507417



 k-points in units of 2pi/SCALE and weight: # No comment                            
   0.00000000  0.00000000  0.00000000       0.010
   0.04394036 -0.00000117 -0.00000066       0.021
   0.08788072 -0.00000234 -0.00000133       0.021
   0.13182109 -0.00000351 -0.00000199       0.010
  -0.00000128  0.04436105  0.00128214       0.021
   0.04393908  0.04435988  0.00128148       0.021
   0.08787944  0.04435871  0.00128081       0.021
   0.13181981  0.04435754  0.00128015       0.021
  -0.08788200  0.04436339  0.00128347       0.021
  -0.04394164  0.04436222  0.00128281       0.021
  -0.00000256  0.08872210  0.00256428       0.010
   0.04393780  0.08872093  0.00256362       0.021
   0.08787816  0.08871976  0.00256295       0.021
   0.13181853  0.08871859  0.00256229       0.010
  -0.00000077 -0.00032823  0.04437564       0.021
   0.04393959 -0.00032940  0.04437498       0.021
   0.08787996 -0.00033057  0.04437431       0.021
   0.13182032 -0.00033174  0.04437365       0.021
  -0.08788149 -0.00032589  0.04437697       0.021
  -0.04394113 -0.00032706  0.04437631       0.021
  -0.00000205  0.04403282  0.04565778       0.021
   0.04393832  0.04403165  0.04565712       0.021
   0.08787868  0.04403048  0.04565645       0.021
   0.13181904  0.04402931  0.04565579       0.021
  -0.08788277  0.04403516  0.04565911       0.021
  -0.04394241  0.04403399  0.04565845       0.021
  -0.00000333  0.08839387  0.04693992       0.021
   0.04393704  0.08839270  0.04693926       0.021
   0.08787740  0.08839153  0.04693859       0.021
   0.13181776  0.08839036  0.04693793       0.021
  -0.08788405  0.08839621  0.04694125       0.021
  -0.04394369  0.08839504  0.04694059       0.021
   0.00000051 -0.04468928  0.04309350       0.021
   0.04394087 -0.04469045  0.04309283       0.021
   0.08788124 -0.04469162  0.04309217       0.021
   0.13182160 -0.04469279  0.04309151       0.021
  -0.08788021 -0.04468694  0.04309483       0.021
  -0.04393985 -0.04468811  0.04309416       0.021
  -0.00000153 -0.00065646  0.08875128       0.010
   0.04393883 -0.00065763  0.08875062       0.021
   0.08787919 -0.00065880  0.08874995       0.021
   0.13181955 -0.00065997  0.08874929       0.010
  -0.00000281  0.04370459  0.09003342       0.021
   0.04393755  0.04370342  0.09003276       0.021
   0.08787791  0.04370225  0.09003209       0.021
   0.13181827  0.04370108  0.09003143       0.021
  -0.08788354  0.04370693  0.09003475       0.021
  -0.04394318  0.04370576  0.09003409       0.021
  -0.00000409  0.08806564  0.09131556       0.010
   0.04393627  0.08806447  0.09131490       0.021
   0.08787663  0.08806330  0.09131423       0.021
   0.13181699  0.08806213  0.09131357       0.010

 k-points in reciprocal lattice and weights: # No comment                            
   0.00000000  0.00000000  0.00000000       0.010
   0.16666667  0.00000000  0.00000000       0.021
   0.33333333  0.00000000  0.00000000       0.021
   0.50000000  0.00000000  0.00000000       0.010
   0.00000000  0.25000000  0.00000000       0.021
   0.16666667  0.25000000  0.00000000       0.021
   0.33333333  0.25000000  0.00000000       0.021
   0.50000000  0.25000000  0.00000000       0.021
  -0.33333333  0.25000000  0.00000000       0.021
  -0.16666667  0.25000000  0.00000000       0.021
   0.00000000  0.50000000  0.00000000       0.010
   0.16666667  0.50000000  0.00000000       0.021
   0.33333333  0.50000000  0.00000000       0.021
   0.50000000  0.50000000  0.00000000       0.010
   0.00000000  0.00000000  0.25000000       0.021
   0.16666667  0.00000000  0.25000000       0.021
   0.33333333  0.00000000  0.25000000       0.021
   0.50000000  0.00000000  0.25000000       0.021
  -0.33333333  0.00000000  0.25000000       0.021
  -0.16666667  0.00000000  0.25000000       0.021
   0.00000000  0.25000000  0.25000000       0.021
   0.16666667  0.25000000  0.25000000       0.021
   0.33333333  0.25000000  0.25000000       0.021
   0.50000000  0.25000000  0.25000000       0.021
  -0.33333333  0.25000000  0.25000000       0.021
  -0.16666667  0.25000000  0.25000000       0.021
   0.00000000  0.50000000  0.25000000       0.021
   0.16666667  0.50000000  0.25000000       0.021
   0.33333333  0.50000000  0.25000000       0.021
   0.50000000  0.50000000  0.25000000       0.021
  -0.33333333  0.50000000  0.25000000       0.021
  -0.16666667  0.50000000  0.25000000       0.021
   0.00000000 -0.25000000  0.25000000       0.021
   0.16666667 -0.25000000  0.25000000       0.021
   0.33333333 -0.25000000  0.25000000       0.021
   0.50000000 -0.25000000  0.25000000       0.021
  -0.33333333 -0.25000000  0.25000000       0.021
  -0.16666667 -0.25000000  0.25000000       0.021
   0.00000000  0.00000000  0.50000000       0.010
   0.16666667  0.00000000  0.50000000       0.021
   0.33333333  0.00000000  0.50000000       0.021
   0.50000000  0.00000000  0.50000000       0.010
   0.00000000  0.25000000  0.50000000       0.021
   0.16666667  0.25000000  0.50000000       0.021
   0.33333333  0.25000000  0.50000000       0.021
   0.50000000  0.25000000  0.50000000       0.021
  -0.33333333  0.25000000  0.50000000       0.021
  -0.16666667  0.25000000  0.50000000       0.021
   0.00000000  0.50000000  0.50000000       0.010
   0.16666667  0.50000000  0.50000000       0.021
   0.33333333  0.50000000  0.50000000       0.021
   0.50000000  0.50000000  0.50000000       0.010

 position of ions in fractional coordinates (direct lattice) 
   0.31776651  0.53819541  0.95302414
   0.31776683  0.95322769  0.53800383
   0.31805073  0.23949139  0.75031388
   0.31806770  0.75035161  0.23932230
   0.81861299  0.23621390  0.23624772
   0.81801378  0.74952723  0.74935469
   0.81818155  0.67234651  0.30587884
   0.81817369  0.30598957  0.67226998
   0.31875992  0.03306324  0.03295944

 position of ions in cartesian coordinates  (Angst):
   1.20545286  2.87728013  5.39037562
   1.20548306  5.28328798  3.07006312
   1.20646951  1.22727114  4.23615799
   1.20656954  4.18883252  1.37927929
   3.10507005  1.29254489  1.34056804
   3.10291608  4.10121153  4.25204444
   3.10350495  3.73854174  1.75094248
   3.10344956  1.61470526  3.79937890
   1.20907036  0.18095920  0.18704370



--------------------------------------------------------------------------------------------------------


 k-point   1 :   0.0000 0.0000 0.0000  plane waves:    3255
 k-point   2 :   0.1667 0.0000 0.0000  plane waves:    3252
 k-point   3 :   0.3333 0.0000 0.0000  plane waves:    3240
 k-point   4 :   0.5000 0.0000 0.0000  plane waves:    3258
 k-point   5 :   0.0000 0.2500 0.0000  plane waves:    3244
 k-point   6 :   0.1667 0.2500 0.0000  plane waves:    3244
 k-point   7 :   0.3333 0.2500 0.0000  plane waves:    3247
 k-point   8 :   0.5000 0.2500 0.0000  plane waves:    3256
 k-point   9 :  -0.3333 0.2500 0.0000  plane waves:    3247
 k-point  10 :  -0.1667 0.2500 0.0000  plane waves:    3244
 k-point  11 :   0.0000 0.5000 0.0000  plane waves:    3226
 k-point  12 :   0.1667 0.5000 0.0000  plane waves:    3238
 k-point  13 :   0.3333 0.5000 0.0000  plane waves:    3252
 k-point  14 :   0.5000 0.5000 0.0000  plane waves:    3268
 k-point  15 :   0.0000 0.0000 0.2500  plane waves:    3243
 k-point  16 :   0.1667 0.0000 0.2500  plane waves:    3245
 k-point  17 :   0.3333 0.0000 0.2500  plane waves:    3246
 k-point  18 :   0.5000 0.0000 0.2500  plane waves:    3254
 k-point  19 :  -0.3333 0.0000 0.2500  plane waves:    3247
 k-point  20 :  -0.1667 0.0000 0.2500  plane waves:    3245
 k-point  21 :   0.0000 0.2500 0.2500  plane waves:    3235
 k-point  22 :   0.1667 0.2500 0.2500  plane waves:    3240
 k-point  23 :   0.3333 0.2500 0.2500  plane waves:    3241
 k-point  24 :   0.5000 0.2500 0.2500  plane waves:    3236
 k-point  25 :  -0.3333 0.2500 0.2500  plane waves:    3241
 k-point  26 :  -0.1667 0.2500 0.2500  plane waves:    3240
 k-point  27 :   0.0000 0.5000 0.2500  plane waves:    3222
 k-point  28 :   0.1667 0.5000 0.2500  plane waves:    3237
 k-point  29 :   0.3333 0.5000 0.2500  plane waves:    3242
 k-point  30 :   0.5000 0.5000 0.2500  plane waves:    3246
 k-point  31 :  -0.3333 0.5000 0.2500  plane waves:    3242
 k-point  32 :  -0.1667 0.5000 0.2500  plane waves:    3237
 k-point  33 :   0.0000-0.2500 0.2500  plane waves:    3247
 k-point  34 :   0.1667-0.2500 0.2500  plane waves:    3241
 k-point  35 :   0.3333-0.2500 0.2500  plane waves:    3252
 k-point  36 :   0.5000-0.2500 0.2500  plane waves:    3252
 k-point  37 :  -0.3333-0.2500 0.2500  plane waves:    3252
 k-point  38 :  -0.1667-0.2500 0.2500  plane waves:    3241
 k-point  39 :   0.0000 0.0000 0.5000  plane waves:    3226
 k-point  40 :   0.1667 0.0000 0.5000  plane waves:    3238
 k-point  41 :   0.3333 0.0000 0.5000  plane waves:    3252
 k-point  42 :   0.5000 0.0000 0.5000  plane waves:    3268
 k-point  43 :   0.0000 0.2500 0.5000  plane waves:    3222
 k-point  44 :   0.1667 0.2500 0.5000  plane waves:    3237
 k-point  45 :   0.3333 0.2500 0.5000  plane waves:    3243
 k-point  46 :   0.5000 0.2500 0.5000  plane waves:    3246
 k-point  47 :  -0.3333 0.2500 0.5000  plane waves:    3243
 k-point  48 :  -0.1667 0.2500 0.5000  plane waves:    3237
 k-point  49 :   0.0000 0.5000 0.5000  plane waves:    3184
 k-point  50 :   0.1667 0.5000 0.5000  plane waves:    3224
 k-point  51 :   0.3333 0.5000 0.5000  plane waves:    3232
 k-point  52 :   0.5000 0.5000 0.5000  plane waves:    3252

 maximum and minimum number of plane-waves per node :      3268     3184

 maximum number of plane-waves:      3268
 maximum index in each direction: 
   IXMAX=    7   IYMAX=   10   IZMAX=   10
   IXMIN=   -7   IYMIN=  -10   IZMIN=  -10


 serial   3D FFT for wavefunctions
 parallel 3D FFT for charge:
    minimum data exchange during FFTs selected (reduces bandwidth)


 FFT grid for exact exchange (Hartree Fock) 
  NGX = 16; NGY = 24; NGZ = 24


 Radii for the augmentation spheres in the non-local exchange
 for species   1 augmentation radius   0.956 (default was   0.708)
       energy cutoff for augmentation   2080.0
 for species   2 augmentation radius   0.974 (default was   0.722)
       energy cutoff for augmentation   2080.0
 for species   3 augmentation radius   1.309 (default was   0.970)
       energy cutoff for augmentation   2080.0
 for species   4 augmentation radius   1.283 (default was   0.950)
       energy cutoff for augmentation   2080.0
 Maximum index for augmentation-charges in exchange          731
  SETUP_FOCK is finished

 total amount of memory used by VASP MPI-rank0   258206. kBytes
=======================================================================

   base      :      30000. kBytes
   nonl-proj :      98474. kBytes
   fftplans  :       1908. kBytes
   grid      :       8829. kBytes
   one-center:        279. kBytes
   HF        :        259. kBytes
   nonlr-proj:        767. kBytes
   wavefun   :     117690. kBytes

     INWAV:  cpu time    0.0000: real time    0.0000
 Broyden mixing: mesh for mixing (old mesh)
   NGX = 15   NGY = 21   NGZ = 21
  (NGX  = 56   NGY  = 84   NGZ  = 84)
  gives a total of   6615 points

 initial charge density was supplied:
 charge density of overlapping atoms calculated
 number of electron      72.0000000 magnetization      18.6000000
 keeping initial charge density in first step


--------------------------------------------------------------------------------------------------------


 Maximum index for augmentation-charges         1569 (set IRDMAX)


--------------------------------------------------------------------------------------------------------


 First call to EWALD:  gamma=   0.359
 Maximum number of real-space cells 3x 2x 2
 Maximum number of reciprocal cells 2x 3x 3

    FEWALD:  cpu time    0.0024: real time    0.0024


--------------------------------------- Iteration      1(   1)  ---------------------------------------


    POTLOK:  cpu time    0.0926: real time    0.0926
    SETDIJ:  cpu time    0.9468: real time    0.9469
    TRIAL :  cpu time    0.6261: real time    0.7001
    CORREC:  cpu time    0.0014: real time    0.0014
    --------------------------------------------
      LOOP:  cpu time    1.7392: real time    1.8137

 eigenvalue-minimisations  : 11872
 total energy-change (2. order) :-0.4859773E+03  (-0.4000275E+04)
 number of electron      72.0000000 magnetization      18.6000000
 augmentation part       72.0000000 magnetization      18.6000000

 Free energy of the ion-electron system (eV)
  ---------------------------------------------------
  alpha Z        PSCENC =       227.58723913
  Ewald energy   TEWEN  =     -5499.96887387
  -Hartree energ DENC   =     -3059.42565989
  -exchange      EXHF   =         0.00000000
  -V(xc)+E(xc)   XCENC  =       323.86059173
  PAW double counting   =      7284.16531602    -8730.36175515
  entropy T*S    EENTRO =        -0.00372400
  eigenvalues    EBANDS =      -200.60169154
  atomic energy  EATOM  =      9168.77127541
  ---------------------------------------------------
  free energy    TOTEN  =      -485.97728216 eV

  energy without entropy =     -485.97355816  energy(sigma->0) =     -485.97542016
  exchange ACFDT corr.  =         0.00000000  see jH, gK, PRB 81, 115126


--------------------------------------------------------------------------------------------------------




--------------------------------------- Iteration      1(   2)  ---------------------------------------


    TRIAL :  cpu time    0.3754: real time    0.3755
    CORREC:  cpu time    0.0015: real time    0.0015
    --------------------------------------------
      LOOP:  cpu time    0.3868: real time    0.4022

 eigenvalue-minimisations  : 11680
 total energy-change (2. order) :-0.8200031E+03  (-0.7585169E+03)
 number of electron      72.0000000 magnetization      18.6000000
 augmentation part       72.0000000 magnetization      18.6000000

 Free energy of the ion-electron system (eV)
  ---------------------------------------------------
  alpha Z        PSCENC =       227.58723913
  Ewald energy   TEWEN  =     -5499.96887387
  -Hartree energ DENC   =     -3059.42565989
  -exchange      EXHF   =         0.00000000
  -V(xc)+E(xc)   XCENC  =       323.86059173
  PAW double counting   =      7284.16531602    -8730.36175515
  entropy T*S    EENTRO =        -0.00920082
  eigenvalues    EBANDS =     -1020.59930382
  atomic energy  EATOM  =      9168.77127541
  ---------------------------------------------------
  free energy    TOTEN  =     -1305.98037126 eV

  energy without entropy =    -1305.97117044  energy(sigma->0) =    -1305.97577085
  exchange ACFDT corr.  =         0.00000000  see jH, gK, PRB 81, 115126


--------------------------------------------------------------------------------------------------------




--------------------------------------- Iteration      1(   3)  ---------------------------------------


    TRIAL :  cpu time    0.4036: real time    0.4036
    CORREC:  cpu time    0.0015: real time    0.0015
    --------------------------------------------
      LOOP:  cpu time    0.4133: real time    0.4277

 eigenvalue-minimisations  : 12992
 total energy-change (2. order) :-0.9828557E+02  (-0.9545800E+02)
 number of electron      72.0000000 magnetization      18.6000000
 augmentation part       72.0000000 magnetization      18.6000000

 Free energy of the ion-electron system (eV)
  ---------------------------------------------------
  alpha Z        PSCENC =       227.58723913
  Ewald energy   TEWEN  =     -5499.96887387
  -Hartree energ DENC   =     -3059.42565989
  -exchange      EXHF   =         0.00000000
  -V(xc)+E(xc)   XCENC  =       323.86059173
  PAW double counting   =      7284.16531602    -8730.36175515
  entropy T*S    EENTRO =        -0.00900924
  eigenvalues    EBANDS =     -1118.88506150
  atomic energy  EATOM  =      9168.77127541
  ---------------------------------------------------
  free energy    TOTEN  =     -1404.26593736 eV

  energy without entropy =    -1404.25692812  energy(sigma->0) =    -1404.26143274
  exchange ACFDT corr.  =         0.00000000  see jH, gK, PRB 81, 115126


--------------------------------------------------------------------------------------------------------




--------------------------------------- Iteration      1(   4)  ---------------------------------------


    TRIAL :  cpu time    0.4596: real time    0.4597
    CORREC:  cpu time    0.0015: real time    0.0015
    --------------------------------------------
      LOOP:  cpu time    0.4835: real time    0.4838

 eigenvalue-minimisations  : 17744
 total energy-change (2. order) :-0.8828133E+01  (-0.8740391E+01)
 number of electron      72.0000000 magnetization      18.6000000
 augmentation part       72.0000000 magnetization      18.6000000

 Free energy of the ion-electron system (eV)
  ---------------------------------------------------
  alpha Z        PSCENC =       227.58723913
  Ewald energy   TEWEN  =     -5499.96887387
  -Hartree energ DENC   =     -3059.42565989
  -exchange      EXHF   =         0.00000000
  -V(xc)+E(xc)   XCENC  =       323.86059173
  PAW double counting   =      7284.16531602    -8730.36175515
  entropy T*S    EENTRO =        -0.00924872
  eigenvalues    EBANDS =     -1127.71295498
  atomic energy  EATOM  =      9168.77127541
  ---------------------------------------------------
  free energy    TOTEN  =     -1413.09407033 eV

  energy without entropy =    -1413.08482160  energy(sigma->0) =    -1413.08944597
  exchange ACFDT corr.  =         0.00000000  see jH, gK, PRB 81, 115126


--------------------------------------------------------------------------------------------------------




--------------------------------------- Iteration      1(   5)  ---------------------------------------


    POTLOK:  cpu time    0.2030: real time    0.2030
    SETDIJ:  cpu time    2.0355: real time    2.0359
    TRIAL :  cpu time   37.6036: real time   37.6204
    CORREC:  cpu time    0.0029: real time    0.0029
    CHARGE:  cpu time    0.0369: real time    0.0371
    --------------------------------------------
      LOOP:  cpu time   39.8878: real time   39.9240

 eigenvalue-minimisations  : 13168
 total energy-change (2. order) : 0.1328669E+04  (-0.3073383E+01)
 number of electron      71.9999958 magnetization      12.8053782
 augmentation part       25.4839302 magnetization       8.9465666

 Free energy of the ion-electron system (eV)
  ---------------------------------------------------
  alpha Z        PSCENC =       227.58723913
  Ewald energy   TEWEN  =     -5499.96887387
  -Hartree energ DENC   =     -3059.42565989
  -exchange      EXHF   =       215.67028130
  -V(xc)+E(xc)   XCENC  =       246.18194577
  PAW double counting   =      7358.64912680    -7608.43645877
  entropy T*S    EENTRO =        -0.00513332
  eigenvalues    EBANDS =     -1133.44858678
  atomic energy  EATOM  =      9168.77127541
  ---------------------------------------------------
  free energy    TOTEN  =       -84.42484422 eV

  energy without entropy =      -84.41971091  energy(sigma->0) =      -84.42227757
  exchange ACFDT corr.  =        -0.01680451  see jH, gK, PRB 81, 115126


--------------------------------------------------------------------------------------------------------




--------------------------------------- Iteration      1(   6)  ---------------------------------------


    POTLOK:  cpu time    0.2011: real time    0.2011
    SETDIJ:  cpu time    2.0169: real time    2.0172
    TRIAL :  cpu time   36.9262: real time   36.9421
    CORREC:  cpu time   39.1553: real time   39.1704
    CHARGE:  cpu time    0.0344: real time    0.0344
    --------------------------------------------
      LOOP:  cpu time   78.3542: real time   78.3858

 eigenvalue-minimisations  :     0
 total energy-change (2. order) : 0.4480493E+02  (-0.2621341E+02)
 number of electron      71.9999960 magnetization      12.1666686
 augmentation part       27.2307761 magnetization       9.1018665

 Free energy of the ion-electron system (eV)
  ---------------------------------------------------
  alpha Z        PSCENC =       227.58723913
  Ewald energy   TEWEN  =     -5499.96887387
  -Hartree energ DENC   =     -2717.51173855
  -exchange      EXHF   =       212.51877054
  -V(xc)+E(xc)   XCENC  =       241.11196348
  PAW double counting   =      8521.17099167    -8758.60208696
  entropy T*S    EENTRO =        -0.00408280
  eigenvalues    EBANDS =     -1434.69232170
  atomic energy  EATOM  =      9168.77127541
  ---------------------------------------------------
  free energy    TOTEN  =       -39.61991416 eV

  energy without entropy =      -39.61583136  energy(sigma->0) =      -39.61787276
  exchange ACFDT corr.  =        -0.00365181  see jH, gK, PRB 81, 115126


--------------------------------------------------------------------------------------------------------




--------------------------------------- Iteration      1(   7)  ---------------------------------------


    POTLOK:  cpu time    0.2038: real time    0.2038
    SETDIJ:  cpu time    2.0136: real time    2.0139
    TRIAL :  cpu time   36.7771: real time   36.7913
    CORREC:  cpu time   38.9050: real time   38.9216
    CHARGE:  cpu time    0.0369: real time    0.0369
    --------------------------------------------
      LOOP:  cpu time   77.9581: real time   77.9895

 eigenvalue-minimisations  :     0
 total energy-change (2. order) :-0.2623880E+02  (-0.4538707E+01)
 number of electron      71.9999961 magnetization      12.0390846
 augmentation part       26.9507291 magnetization       8.9373675

 Free energy of the ion-electron system (eV)
  ---------------------------------------------------
  alpha Z        PSCENC =       227.58723913
  Ewald energy   TEWEN  =     -5499.96887387
  -Hartree energ DENC   =     -2941.98225445
  -exchange      EXHF   =       212.63753623
  -V(xc)+E(xc)   XCENC  =       245.43664961
  PAW double counting   =      9487.44481974    -9773.14271736
  entropy T*S    EENTRO =        -0.00641536
  eigenvalues    EBANDS =     -1192.63830124
  atomic energy  EATOM  =      9168.77127541
  ---------------------------------------------------
  free energy    TOTEN  =       -65.85870960 eV

  energy without entropy =      -65.85229423  energy(sigma->0) =      -65.85550191
  exchange ACFDT corr.  =        -0.06787823  see jH, gK, PRB 81, 115126


--------------------------------------------------------------------------------------------------------




--------------------------------------- Iteration      1(   8)  ---------------------------------------


    POTLOK:  cpu time    0.2001: real time    0.2001
    SETDIJ:  cpu time    2.0165: real time    2.0169
    TRIAL :  cpu time   36.5676: real time   36.5839
    CORREC:  cpu time   38.9328: real time   38.9485
    CHARGE:  cpu time    0.0353: real time    0.0353
    --------------------------------------------
      LOOP:  cpu time   77.7734: real time   77.8061

 eigenvalue-minimisations  :     0
 total energy-change (2. order) :-0.4505620E+01  (-0.1926880E+01)
 number of electron      71.9999962 magnetization      12.0201116
 augmentation part       26.8344654 magnetization       8.6901662

 Free energy of the ion-electron system (eV)
  ---------------------------------------------------
  alpha Z        PSCENC =       227.58723913
  Ewald energy   TEWEN  =     -5499.96887387
  -Hartree energ DENC   =     -2928.80741317
  -exchange      EXHF   =       210.72335642
  -V(xc)+E(xc)   XCENC  =       243.57697766
  PAW double counting   =      9690.25648466    -9964.28737116
  entropy T*S    EENTRO =        -0.00451093
  eigenvalues    EBANDS =     -1218.20958974
  atomic energy  EATOM  =      9168.77127541
  ---------------------------------------------------
  free energy    TOTEN  =       -70.36433002 eV

  energy without entropy =      -70.35981909  energy(sigma->0) =      -70.36207456
  exchange ACFDT corr.  =        -0.03472956  see jH, gK, PRB 81, 115126


--------------------------------------------------------------------------------------------------------




--------------------------------------- Iteration      1(   9)  ---------------------------------------


    POTLOK:  cpu time    0.2023: real time    0.2023
    SETDIJ:  cpu time    2.0151: real time    2.0155
    TRIAL :  cpu time   36.7135: real time   36.7303
    CORREC:  cpu time   38.9182: real time   38.9351
    CHARGE:  cpu time    0.0347: real time    0.0347
    --------------------------------------------
      LOOP:  cpu time   77.9042: real time   77.9391

 eigenvalue-minimisations  :     0
 total energy-change (2. order) :-0.2078930E+01  (-0.1116535E+01)
 number of electron      71.9999962 magnetization      11.9999991
 augmentation part       27.0700565 magnetization       8.4511094

 Free energy of the ion-electron system (eV)
  ---------------------------------------------------
  alpha Z        PSCENC =       227.58723913
  Ewald energy   TEWEN  =     -5499.96887387
  -Hartree energ DENC   =     -2931.01636684
  -exchange      EXHF   =       210.26528513
  -V(xc)+E(xc)   XCENC  =       243.05281599
  PAW double counting   =      9578.52148089    -9843.99967383
  entropy T*S    EENTRO =        -0.00421173
  eigenvalues    EBANDS =     -1225.65193142
  atomic energy  EATOM  =      9168.77127541
  ---------------------------------------------------
  free energy    TOTEN  =       -72.44326036 eV

  energy without entropy =      -72.43904863  energy(sigma->0) =      -72.44115450
  exchange ACFDT corr.  =        -0.05223402  see jH, gK, PRB 81, 115126


--------------------------------------------------------------------------------------------------------




--------------------------------------- Iteration      1(  10)  ---------------------------------------


    POTLOK:  cpu time    0.2002: real time    0.2002
    SETDIJ:  cpu time    2.0155: real time    2.0159
    TRIAL :  cpu time   36.7194: real time   36.7351
    CORREC:  cpu time   38.9487: real time   38.9650
    CHARGE:  cpu time    0.0353: real time    0.0353
    --------------------------------------------
      LOOP:  cpu time   77.9403: real time   77.9729

 eigenvalue-minimisations  :     0
 total energy-change (2. order) :-0.1106119E+01  (-0.4927585E+00)
 number of electron      71.9999962 magnetization      11.9999990
 augmentation part       27.0641610 magnetization       8.2732798

 Free energy of the ion-electron system (eV)
  ---------------------------------------------------
  alpha Z        PSCENC =       227.58723913
  Ewald energy   TEWEN  =     -5499.96887387
  -Hartree energ DENC   =     -2969.56723550
  -exchange      EXHF   =       210.82763314
  -V(xc)+E(xc)   XCENC  =       243.99516570
  PAW double counting   =      9435.96009800    -9704.40322927
  entropy T*S    EENTRO =        -0.00326457
  eigenvalues    EBANDS =     -1186.74724051
  atomic energy  EATOM  =      9168.77127541
  ---------------------------------------------------
  free energy    TOTEN  =       -73.54937949 eV

  energy without entropy =      -73.54611492  energy(sigma->0) =      -73.54774721
  exchange ACFDT corr.  =        -0.06791125  see jH, gK, PRB 81, 115126


--------------------------------------------------------------------------------------------------------




--------------------------------------- Iteration      1(  11)  ---------------------------------------


    POTLOK:  cpu time    0.2003: real time    0.2009
    SETDIJ:  cpu time    2.0167: real time    2.0171
    TRIAL :  cpu time   36.6900: real time   36.7059
    CORREC:  cpu time   39.0408: real time   39.0598
    CHARGE:  cpu time    0.0348: real time    0.0348
    --------------------------------------------
      LOOP:  cpu time   78.0054: real time   78.0418

 eigenvalue-minimisations  :     0
 total energy-change (2. order) :-0.4771756E+00  (-0.3405009E+00)
 number of electron      71.9999963 magnetization      11.9999990
 augmentation part       27.0572244 magnetization       8.1487200

 Free energy of the ion-electron system (eV)
  ---------------------------------------------------
  alpha Z        PSCENC =       227.58723913
  Ewald energy   TEWEN  =     -5499.96887387
  -Hartree energ DENC   =     -2970.69502712
  -exchange      EXHF   =       210.74674219
  -V(xc)+E(xc)   XCENC  =       243.84040403
  PAW double counting   =      9278.63343734    -9545.63790374
  entropy T*S    EENTRO =        -0.00132118
  eigenvalues    EBANDS =     -1187.30058392
  atomic energy  EATOM  =      9168.77127541
  ---------------------------------------------------
  free energy    TOTEN  =       -74.02655513 eV

  energy without entropy =      -74.02523394  energy(sigma->0) =      -74.02589454
  exchange ACFDT corr.  =        -0.08351734  see jH, gK, PRB 81, 115126


--------------------------------------------------------------------------------------------------------




--------------------------------------- Iteration      1(  12)  ---------------------------------------


    POTLOK:  cpu time    0.2024: real time    0.2024
    SETDIJ:  cpu time    2.0132: real time    2.0137
    TRIAL :  cpu time   36.7490: real time   36.7660
    CORREC:  cpu time   39.0080: real time   39.0250
    CHARGE:  cpu time    0.0349: real time    0.0349
    --------------------------------------------
      LOOP:  cpu time   78.0277: real time   78.0624

 eigenvalue-minimisations  :     0
 total energy-change (2. order) :-0.3326772E+00  (-0.3188024E+00)
 number of electron      71.9999963 magnetization      11.9999989
 augmentation part       27.0969660 magnetization       8.0582737

 Free energy of the ion-electron system (eV)
  ---------------------------------------------------
  alpha Z        PSCENC =       227.58723913
  Ewald energy   TEWEN  =     -5499.96887387
  -Hartree energ DENC   =     -2971.77055783
  -exchange      EXHF   =       210.87486643
  -V(xc)+E(xc)   XCENC  =       243.64351787
  PAW double counting   =      9201.76972785    -9468.09377142
  entropy T*S    EENTRO =        -0.00175867
  eigenvalues    EBANDS =     -1187.17133467
  atomic energy  EATOM  =      9168.77127541
  ---------------------------------------------------
  free energy    TOTEN  =       -74.35923229 eV

  energy without entropy =      -74.35747362  energy(sigma->0) =      -74.35835296
  exchange ACFDT corr.  =        -0.08997530  see jH, gK, PRB 81, 115126


--------------------------------------------------------------------------------------------------------




--------------------------------------- Iteration      1(  13)  ---------------------------------------


    POTLOK:  cpu time    0.2026: real time    0.2026
    SETDIJ:  cpu time    2.0173: real time    2.0177
    TRIAL :  cpu time   36.6992: real time   36.7161
    CORREC:  cpu time   38.9643: real time   38.9804
    CHARGE:  cpu time    0.0356: real time    0.0356
    --------------------------------------------
      LOOP:  cpu time   77.9271: real time   77.9731

 eigenvalue-minimisations  :     0
 total energy-change (2. order) :-0.3495984E+00  (-0.2485757E+00)
 number of electron      71.9999963 magnetization      11.9999989
 augmentation part       27.1153801 magnetization       8.0116781

 Free energy of the ion-electron system (eV)
  ---------------------------------------------------
  alpha Z        PSCENC =       227.58723913
  Ewald energy   TEWEN  =     -5499.96887387
  -Hartree energ DENC   =     -2978.77063822
  -exchange      EXHF   =       211.48932588
  -V(xc)+E(xc)   XCENC  =       243.77504184
  PAW double counting   =      9198.26799537    -9464.97000367
  entropy T*S    EENTRO =        -0.00067756
  eigenvalues    EBANDS =     -1180.88843387
  atomic energy  EATOM  =      9168.77127541
  ---------------------------------------------------
  free energy    TOTEN  =       -74.70883067 eV

  energy without entropy =      -74.70815312  energy(sigma->0) =      -74.70849189
  exchange ACFDT corr.  =        -0.04613725  see jH, gK, PRB 81, 115126


--------------------------------------------------------------------------------------------------------




--------------------------------------- Iteration      1(  14)  ---------------------------------------


    POTLOK:  cpu time    0.2009: real time    0.2009
    SETDIJ:  cpu time    2.0197: real time    2.0202
    TRIAL :  cpu time   36.6557: real time   36.6707
    CORREC:  cpu time   38.9233: real time   38.9400
    CHARGE:  cpu time    0.0337: real time    0.0337
    --------------------------------------------
      LOOP:  cpu time   77.8402: real time   77.8871

 eigenvalue-minimisations  :     0
 total energy-change (2. order) :-0.2272054E+00  (-0.4284987E+00)
 number of electron      71.9999964 magnetization      11.9999989
 augmentation part       27.0999589 magnetization       7.9557942

 Free energy of the ion-electron system (eV)
  ---------------------------------------------------
  alpha Z        PSCENC =       227.58723913
  Ewald energy   TEWEN  =     -5499.96887387
  -Hartree energ DENC   =     -2981.60527749
  -exchange      EXHF   =       211.97132113
  -V(xc)+E(xc)   XCENC  =       243.89560904
  PAW double counting   =      9214.20320804    -9480.86816177
  entropy T*S    EENTRO =        -0.00000000
  eigenvalues    EBANDS =     -1178.92169809
  atomic energy  EATOM  =      9168.77127541
  ---------------------------------------------------
  free energy    TOTEN  =       -74.93603605 eV

  energy without entropy =      -74.93603605  energy(sigma->0) =      -74.93603605
  exchange ACFDT corr.  =        -0.01047605  see jH, gK, PRB 81, 115126


--------------------------------------------------------------------------------------------------------




--------------------------------------- Iteration      1(  15)  ---------------------------------------


    POTLOK:  cpu time    0.2017: real time    0.2018
    SETDIJ:  cpu time    2.0337: real time    2.0341
    TRIAL :  cpu time   36.6469: real time   36.6634
    CORREC:  cpu time   39.0439: real time   39.0614
    CHARGE:  cpu time    0.0347: real time    0.0347
    --------------------------------------------
      LOOP:  cpu time   77.9814: real time   78.0161

 eigenvalue-minimisations  :     0
 total energy-change (2. order) :-0.1910442E+00  (-0.2435773E+00)
 number of electron      71.9999964 magnetization      11.9999989
 augmentation part       27.1195779 magnetization       7.9904872

 Free energy of the ion-electron system (eV)
  ---------------------------------------------------
  alpha Z        PSCENC =       227.58723913
  Ewald energy   TEWEN  =     -5499.96887387
  -Hartree energ DENC   =     -2977.49777146
  -exchange      EXHF   =       212.72640825
  -V(xc)+E(xc)   XCENC  =       243.97244826
  PAW double counting   =      9273.07415464    -9538.83290960
  entropy T*S    EENTRO =        -0.00000000
  eigenvalues    EBANDS =     -1184.95905100
  atomic energy  EATOM  =      9168.77127541
  ---------------------------------------------------
  free energy    TOTEN  =       -75.12708024 eV

  energy without entropy =      -75.12708024  energy(sigma->0) =      -75.12708024
  exchange ACFDT corr.  =        -0.00000000  see jH, gK, PRB 81, 115126


--------------------------------------------------------------------------------------------------------




--------------------------------------- Iteration      1(  16)  ---------------------------------------


    POTLOK:  cpu time    0.2010: real time    0.2010
    SETDIJ:  cpu time    2.0312: real time    2.0317
    TRIAL :  cpu time   36.6311: real time   36.6478
    CORREC:  cpu time   38.9064: real time   38.9241
    CHARGE:  cpu time    0.0347: real time    0.0347
    --------------------------------------------
      LOOP:  cpu time   77.8263: real time   77.8616

 eigenvalue-minimisations  :     0
 total energy-change (2. order) :-0.2437005E+00  (-0.7907351E-01)
 number of electron      71.9999964 magnetization      11.9999989
 augmentation part       27.0762772 magnetization       8.0037224

 Free energy of the ion-electron system (eV)
  ---------------------------------------------------
  alpha Z        PSCENC =       227.58723913
  Ewald energy   TEWEN  =     -5499.96887387
  -Hartree energ DENC   =     -2979.33963025
  -exchange      EXHF   =       212.66993356
  -V(xc)+E(xc)   XCENC  =       243.95569830
  PAW double counting   =      9295.56767723    -9563.04065121
  entropy T*S    EENTRO =        -0.00000000
  eigenvalues    EBANDS =     -1181.57344905
  atomic energy  EATOM  =      9168.77127541
  ---------------------------------------------------
  free energy    TOTEN  =       -75.37078074 eV

  energy without entropy =      -75.37078074  energy(sigma->0) =      -75.37078074
  exchange ACFDT corr.  =        -0.00000000  see jH, gK, PRB 81, 115126


--------------------------------------------------------------------------------------------------------




--------------------------------------- Iteration      1(  17)  ---------------------------------------


    POTLOK:  cpu time    0.2008: real time    0.2011
    SETDIJ:  cpu time    2.0208: real time    2.0213
    TRIAL :  cpu time   36.6617: real time   36.6796
    CORREC:  cpu time   38.9057: real time   38.9249
    CHARGE:  cpu time    0.0366: real time    0.0366
    --------------------------------------------
      LOOP:  cpu time   77.8327: real time   77.8857

 eigenvalue-minimisations  :     0
 total energy-change (2. order) :-0.8019173E-01  (-0.3749943E-01)
 number of electron      71.9999964 magnetization      11.9999989
 augmentation part       27.1210114 magnetization       8.0399288

 Free energy of the ion-electron system (eV)
  ---------------------------------------------------
  alpha Z        PSCENC =       227.58723913
  Ewald energy   TEWEN  =     -5499.96887387
  -Hartree energ DENC   =     -2973.58641731
  -exchange      EXHF   =       212.78119083
  -V(xc)+E(xc)   XCENC  =       243.87755158
  PAW double counting   =      9277.56001143    -9543.82431816
  entropy T*S    EENTRO =        -0.00000000
  eigenvalues    EBANDS =     -1188.64863152
  atomic energy  EATOM  =      9168.77127541
  ---------------------------------------------------
  free energy    TOTEN  =       -75.45097247 eV

  energy without entropy =      -75.45097247  energy(sigma->0) =      -75.45097247
  exchange ACFDT corr.  =        -0.00000000  see jH, gK, PRB 81, 115126


--------------------------------------------------------------------------------------------------------




--------------------------------------- Iteration      1(  18)  ---------------------------------------


    POTLOK:  cpu time    0.2012: real time    0.2015
    SETDIJ:  cpu time    2.0182: real time    2.0187
    TRIAL :  cpu time   36.6621: real time   36.6803
    CORREC:  cpu time   38.8950: real time   38.9124
    CHARGE:  cpu time    0.0344: real time    0.0344
    --------------------------------------------
      LOOP:  cpu time   77.8318: real time   77.8684

 eigenvalue-minimisations  :     0
 total energy-change (2. order) :-0.3781872E-01  (-0.1001231E-01)
 number of electron      71.9999964 magnetization      11.9999989
 augmentation part       27.0975425 magnetization       8.0434121

 Free energy of the ion-electron system (eV)
  ---------------------------------------------------
  alpha Z        PSCENC =       227.58723913
  Ewald energy   TEWEN  =     -5499.96887387
  -Hartree energ DENC   =     -2980.01989450
  -exchange      EXHF   =       213.02788857
  -V(xc)+E(xc)   XCENC  =       244.12255519
  PAW double counting   =      9323.88137640    -9591.57601159
  entropy T*S    EENTRO =        -0.00000000
  eigenvalues    EBANDS =     -1181.31434594
  atomic energy  EATOM  =      9168.77127541
  ---------------------------------------------------
  free energy    TOTEN  =       -75.48879119 eV

  energy without entropy =      -75.48879119  energy(sigma->0) =      -75.48879119
  exchange ACFDT corr.  =        -0.00000000  see jH, gK, PRB 81, 115126


--------------------------------------------------------------------------------------------------------




--------------------------------------- Iteration      1(  19)  ---------------------------------------


    POTLOK:  cpu time    0.2030: real time    0.2030
    SETDIJ:  cpu time    2.0123: real time    2.0129
    TRIAL :  cpu time   36.8047: real time   36.8231
    CORREC:  cpu time   38.9424: real time   38.9616
    CHARGE:  cpu time    0.0371: real time    0.0371
    --------------------------------------------
      LOOP:  cpu time   78.0087: real time   78.0608

 eigenvalue-minimisations  :     0
 total energy-change (2. order) :-0.1003433E-01  (-0.3236130E-02)
 number of electron      71.9999964 magnetization      11.9999989
 augmentation part       27.0996933 magnetization       8.0499323

 Free energy of the ion-electron system (eV)
  ---------------------------------------------------
  alpha Z        PSCENC =       227.58723913
  Ewald energy   TEWEN  =     -5499.96887387
  -Hartree energ DENC   =     -2975.98753982
  -exchange      EXHF   =       212.94947735
  -V(xc)+E(xc)   XCENC  =       244.00203796
  PAW double counting   =      9326.72467763    -9594.00628876
  entropy T*S    EENTRO =        -0.00000000
  eigenvalues    EBANDS =     -1185.57083055
  atomic energy  EATOM  =      9168.77127541
  ---------------------------------------------------
  free energy    TOTEN  =       -75.49882552 eV

  energy without entropy =      -75.49882552  energy(sigma->0) =      -75.49882552
  exchange ACFDT corr.  =        -0.00000000  see jH, gK, PRB 81, 115126


--------------------------------------------------------------------------------------------------------




--------------------------------------- Iteration      1(  20)  ---------------------------------------


    POTLOK:  cpu time    0.2015: real time    0.2019
    SETDIJ:  cpu time    2.0152: real time    2.0157
    TRIAL :  cpu time   36.7537: real time   36.7720
    CORREC:  cpu time   38.8834: real time   38.9031
    CHARGE:  cpu time    0.0356: real time    0.0357
    --------------------------------------------
      LOOP:  cpu time   77.9115: real time   77.9507

 eigenvalue-minimisations  :     0
 total energy-change (2. order) :-0.3246996E-02  (-0.1732917E-02)
 number of electron      71.9999964 magnetization      11.9999989
 augmentation part       27.1030049 magnetization       8.0534554

 Free energy of the ion-electron system (eV)
  ---------------------------------------------------
  alpha Z        PSCENC =       227.58723913
  Ewald energy   TEWEN  =     -5499.96887387
  -Hartree energ DENC   =     -2976.52945155
  -exchange      EXHF   =       212.98744838
  -V(xc)+E(xc)   XCENC  =       244.03512511
  PAW double counting   =      9329.99445616    -9597.35492228
  entropy T*S    EENTRO =        -0.00000000
  eigenvalues    EBANDS =     -1185.02436901
  atomic energy  EATOM  =      9168.77127541
  ---------------------------------------------------
  free energy    TOTEN  =       -75.50207252 eV

  energy without entropy =      -75.50207252  energy(sigma->0) =      -75.50207252
  exchange ACFDT corr.  =        -0.00000000  see jH, gK, PRB 81, 115126


--------------------------------------------------------------------------------------------------------




--------------------------------------- Iteration      1(  21)  ---------------------------------------


    POTLOK:  cpu time    0.2054: real time    0.2054
    SETDIJ:  cpu time    2.0090: real time    2.0096
    TRIAL :  cpu time   36.5333: real time   36.5511
    CORREC:  cpu time   38.9272: real time   38.9451
    CHARGE:  cpu time    0.0338: real time    0.0338
    --------------------------------------------
      LOOP:  cpu time   77.7292: real time   77.7659

 eigenvalue-minimisations  :     0
 total energy-change (2. order) :-0.1734315E-02  (-0.1375078E-02)
 number of electron      71.9999964 magnetization      11.9999989
 augmentation part       27.1001754 magnetization       8.0527660

 Free energy of the ion-electron system (eV)
  ---------------------------------------------------
  alpha Z        PSCENC =       227.58723913
  Ewald energy   TEWEN  =     -5499.96887387
  -Hartree energ DENC   =     -2977.05847172
  -exchange      EXHF   =       213.00834087
  -V(xc)+E(xc)   XCENC  =       244.05858736
  PAW double counting   =      9331.99462688    -9599.47252930
  entropy T*S    EENTRO =        -0.00000000
  eigenvalues    EBANDS =     -1184.42400159
  atomic energy  EATOM  =      9168.77127541
  ---------------------------------------------------
  free energy    TOTEN  =       -75.50380683 eV

  energy without entropy =      -75.50380683  energy(sigma->0) =      -75.50380683
  exchange ACFDT corr.  =        -0.00000000  see jH, gK, PRB 81, 115126


--------------------------------------------------------------------------------------------------------




--------------------------------------- Iteration      1(  22)  ---------------------------------------


    POTLOK:  cpu time    0.2000: real time    0.2000
    SETDIJ:  cpu time    2.0196: real time    2.0202
    TRIAL :  cpu time   36.7160: real time   36.7338
    CORREC:  cpu time   38.9238: real time   38.9415
    CHARGE:  cpu time    0.0342: real time    0.0342
    --------------------------------------------
      LOOP:  cpu time   77.9145: real time   77.9509

 eigenvalue-minimisations  :     0
 total energy-change (2. order) :-0.1374394E-02  (-0.8879853E-03)
 number of electron      71.9999964 magnetization      11.9999989
 augmentation part       27.1011995 magnetization       8.0522858

 Free energy of the ion-electron system (eV)
  ---------------------------------------------------
  alpha Z        PSCENC =       227.58723913
  Ewald energy   TEWEN  =     -5499.96887387
  -Hartree energ DENC   =     -2976.37286797
  -exchange      EXHF   =       212.98636127
  -V(xc)+E(xc)   XCENC  =       244.03585390
  PAW double counting   =      9330.88115338    -9598.33588607
  entropy T*S    EENTRO =        -0.00000000
  eigenvalues    EBANDS =     -1185.08943640
  atomic energy  EATOM  =      9168.77127541
  ---------------------------------------------------
  free energy    TOTEN  =       -75.50518123 eV

  energy without entropy =      -75.50518123  energy(sigma->0) =      -75.50518123
  exchange ACFDT corr.  =        -0.00000000  see jH, gK, PRB 81, 115126


--------------------------------------------------------------------------------------------------------




--------------------------------------- Iteration      1(  23)  ---------------------------------------


    POTLOK:  cpu time    0.2026: real time    0.2026
    SETDIJ:  cpu time    2.0171: real time    2.0176
    TRIAL :  cpu time   36.7091: real time   36.7247
    CORREC:  cpu time   39.0333: real time   39.0518
    CHARGE:  cpu time    0.0337: real time    0.0337
    --------------------------------------------
      LOOP:  cpu time   78.0174: real time   78.0521

 eigenvalue-minimisations  :     0
 total energy-change (2. order) :-0.8861742E-03  (-0.7248805E-03)
 number of electron      71.9999964 magnetization      11.9999989
 augmentation part       27.1018894 magnetization       8.0524284

 Free energy of the ion-electron system (eV)
  ---------------------------------------------------
  alpha Z        PSCENC =       227.58723913
  Ewald energy   TEWEN  =     -5499.96887387
  -Hartree energ DENC   =     -2976.45995875
  -exchange      EXHF   =       212.98517116
  -V(xc)+E(xc)   XCENC  =       244.03726049
  PAW double counting   =      9331.64863218    -9599.12685594
  entropy T*S    EENTRO =        -0.00000000
  eigenvalues    EBANDS =     -1184.97995720
  atomic energy  EATOM  =      9168.77127541
  ---------------------------------------------------
  free energy    TOTEN  =       -75.50606740 eV

  energy without entropy =      -75.50606740  energy(sigma->0) =      -75.50606740
  exchange ACFDT corr.  =        -0.00000000  see jH, gK, PRB 81, 115126


--------------------------------------------------------------------------------------------------------




--------------------------------------- Iteration      1(  24)  ---------------------------------------


    POTLOK:  cpu time    0.2005: real time    0.2006
    SETDIJ:  cpu time    2.0159: real time    2.0163
    TRIAL :  cpu time   36.7563: real time   36.7709
    CORREC:  cpu time   38.9681: real time   38.9848
    CHARGE:  cpu time    0.0345: real time    0.0345
    --------------------------------------------
      LOOP:  cpu time   77.9971: real time   78.0290

 eigenvalue-minimisations  :     0
 total energy-change (2. order) :-0.7259573E-03  (-0.6306485E-03)
 number of electron      71.9999964 magnetization      11.9999989
 augmentation part       27.0996831 magnetization       8.0514237

 Free energy of the ion-electron system (eV)
  ---------------------------------------------------
  alpha Z        PSCENC =       227.58723913
  Ewald energy   TEWEN  =     -5499.96887387
  -Hartree energ DENC   =     -2976.75601926
[...]
     17      -1.0562      1.00000
     18      -0.7863      1.00000
     19      -0.2703      1.00000
     20      -0.0891      1.00000
     21       0.0802      1.00000
     22       0.5147      1.00000
     23       0.8904      1.00000
     24       1.7257      1.00000
     25       2.0707      1.00000
     26       2.2846      1.00000
     27       2.6648      1.00000
     28       3.3103      1.00000
     29       3.9996      1.00000
     30       4.4041      1.00000
     31       7.6768      0.00000
     32       7.7809      0.00000
     33       7.9677      0.00000
     34       8.1851      0.00000
     35       8.3642      0.00000
     36       8.4523      0.00000
     37       8.5816      0.00000
     38       8.8873      0.00000
     39       9.2556      0.00000
     40       9.2887      0.00000
     41       9.5800      0.00000
     42       9.7503      0.00000
     43      11.1015      0.00000
     44      11.4690      0.00000
     45      12.0201      0.00000
     46      12.3394      0.00000
     47      12.7299      0.00000
     48      13.0173      0.00000
     49      13.3704      0.00000
     50      13.9511      0.00000
     51      14.0593      0.00000
     52      14.7918      0.00000
     53      15.0380      0.00000
     54      15.7508      0.00000
     55      16.8217      0.00000
     56      17.3330      0.00000

 k-point    49 :       0.0000    0.5000    0.5000
  band No.  band energies     occupation 
      1     -49.5234      1.00000
      2     -49.5192      1.00000
      3     -49.4690      1.00000
      4     -49.4452      1.00000
      5     -49.4431      1.00000
      6     -49.4426      1.00000
      7     -49.1640      1.00000
      8     -49.1551      1.00000
      9     -49.1313      1.00000
     10     -43.5721      1.00000
     11     -43.5711      1.00000
     12     -15.7262      1.00000
     13     -15.5452      1.00000
     14      -8.8942      1.00000
     15      -8.7000      1.00000
     16      -0.8935      1.00000
     17      -0.5118      1.00000
     18      -0.4726      1.00000
     19      -0.2849      1.00000
     20      -0.1319      1.00000
     21      -0.0884      1.00000
     22       0.2746      1.00000
     23       0.4733      1.00000
     24       1.8685      1.00000
     25       2.2479      1.00000
     26       2.4364      1.00000
     27       3.0105      1.00000
     28       3.3361      1.00000
     29       3.7856      1.00000
     30       4.2520      1.00000
     31       7.7389      0.00000
     32       7.7765      0.00000
     33       8.0947      0.00000
     34       8.4850      0.00000
     35       8.5595      0.00000
     36       8.5923      0.00000
     37       8.8379      0.00000
     38       8.9873      0.00000
     39       9.1038      0.00000
     40       9.1110      0.00000
     41       9.6827      0.00000
     42       9.8064      0.00000
     43      11.2323      0.00000
     44      11.6996      0.00000
     45      12.0324      0.00000
     46      12.4312      0.00000
     47      12.7948      0.00000
     48      12.8771      0.00000
     49      13.0165      0.00000
     50      13.5089      0.00000
     51      14.2420      0.00000
     52      14.6050      0.00000
     53      14.9599      0.00000
     54      16.0617      0.00000
     55      16.6774      0.00000
     56      17.5313      0.00000

 k-point    50 :       0.1667    0.5000    0.5000
  band No.  band energies     occupation 
      1     -49.5231      1.00000
      2     -49.5190      1.00000
      3     -49.4692      1.00000
      4     -49.4462      1.00000
      5     -49.4442      1.00000
      6     -49.4425      1.00000
      7     -49.1639      1.00000
      8     -49.1554      1.00000
      9     -49.1313      1.00000
     10     -43.5720      1.00000
     11     -43.5709      1.00000
     12     -15.6734      1.00000
     13     -15.4922      1.00000
     14      -8.7901      1.00000
     15      -8.6294      1.00000
     16      -1.1740      1.00000
     17      -1.1461      1.00000
     18      -0.9245      1.00000
     19      -0.0707      1.00000
     20       0.1059      1.00000
     21       0.1302      1.00000
     22       0.3040      1.00000
     23       0.5713      1.00000
     24       1.7981      1.00000
     25       2.3083      1.00000
     26       2.3297      1.00000
     27       2.5321      1.00000
     28       3.3647      1.00000
     29       3.9823      1.00000
     30       4.2457      1.00000
     31       7.7530      0.00000
     32       7.8028      0.00000
     33       8.1014      0.00000
     34       8.3012      0.00000
     35       8.4423      0.00000
     36       8.6153      0.00000
     37       8.7198      0.00000
     38       8.8551      0.00000
     39       8.9380      0.00000
     40       9.5380      0.00000
     41       9.5714      0.00000
     42       9.6545      0.00000
     43      11.3658      0.00000
     44      11.6873      0.00000
     45      12.0115      0.00000
     46      12.0742      0.00000
     47      12.7886      0.00000
     48      13.2080      0.00000
     49      13.2658      0.00000
     50      13.5290      0.00000
     51      14.2989      0.00000
     52      14.5905      0.00000
     53      15.2371      0.00000
     54      16.0297      0.00000
     55      16.9520      0.00000
     56      17.0550      0.00000

 k-point    51 :       0.3333    0.5000    0.5000
  band No.  band energies     occupation 
      1     -49.5226      1.00000
      2     -49.5185      1.00000
      3     -49.4694      1.00000
      4     -49.4481      1.00000
      5     -49.4464      1.00000
      6     -49.4424      1.00000
      7     -49.1638      1.00000
      8     -49.1561      1.00000
      9     -49.1311      1.00000
     10     -43.5717      1.00000
     11     -43.5703      1.00000
     12     -15.5655      1.00000
     13     -15.3835      1.00000
     14      -8.5669      1.00000
     15      -8.4764      1.00000
     16      -1.8640      1.00000
     17      -1.7665      1.00000
     18      -1.2011      1.00000
     19      -0.5210      1.00000
     20      -0.0648      1.00000
     21       0.3694      1.00000
     22       0.6936      1.00000
     23       0.8668      1.00000
     24       1.5966      1.00000
     25       1.9583      1.00000
     26       2.4926      1.00000
     27       2.5232      1.00000
     28       3.3942      1.00000
     29       4.0948      1.00000
     30       4.1292      1.00000
     31       7.5915      0.00000
     32       7.6598      0.00000
     33       7.7742      0.00000
     34       8.1553      0.00000
     35       8.4938      0.00000
     36       8.6206      0.00000
     37       8.8096      0.00000
     38       8.8099      0.00000
     39       8.9886      0.00000
     40       9.4773      0.00000
     41       9.5680      0.00000
     42       9.6384      0.00000
     43      10.6430      0.00000
     44      11.1635      0.00000
     45      11.4041      0.00000
     46      11.5423      0.00000
     47      12.7304      0.00000
     48      13.8273      0.00000
     49      14.1168      0.00000
     50      14.4362      0.00000
     51      14.7651      0.00000
     52      15.1169      0.00000
     53      15.4427      0.00000
     54      15.9321      0.00000
     55      17.4454      0.00000
     56      17.8836      0.00000

 k-point    52 :       0.5000    0.5000    0.5000
  band No.  band energies     occupation 
      1     -49.5224      1.00000
      2     -49.5182      1.00000
      3     -49.4695      1.00000
      4     -49.4490      1.00000
      5     -49.4475      1.00000
      6     -49.4424      1.00000
      7     -49.1637      1.00000
      8     -49.1565      1.00000
      9     -49.1310      1.00000
     10     -43.5717      1.00000
     11     -43.5700      1.00000
     12     -15.5103      1.00000
     13     -15.3279      1.00000
     14      -8.4506      1.00000
     15      -8.3888      1.00000
     16      -2.1477      1.00000
     17      -1.9697      1.00000
     18      -1.4671      1.00000
     19      -0.8314      1.00000
     20      -0.0816      1.00000
     21       0.5543      1.00000
     22       0.8657      1.00000
     23       0.9040      1.00000
     24       1.4863      1.00000
     25       2.0043      1.00000
     26       2.4385      1.00000
     27       2.6383      1.00000
     28       3.4109      1.00000
     29       4.0178      1.00000
     30       4.1217      1.00000
     31       7.3248      0.00000
     32       7.5030      0.00000
     33       7.8116      0.00000
     34       8.2102      0.00000
     35       8.3746      0.00000
     36       8.5868      0.00000
     37       8.8161      0.00000
     38       9.0167      0.00000
     39       9.0553      0.00000
     40       9.3891      0.00000
     41       9.4535      0.00000
     42       9.6234      0.00000
     43      10.6797      0.00000
     44      10.7738      0.00000
     45      11.0325      0.00000
     46      11.4778      0.00000
     47      12.5250      0.00000
     48      13.4933      0.00000
     49      13.8570      0.00000
     50      14.2953      0.00000
     51      15.3271      0.00000
     52      15.8027      0.00000
     53      15.9100      0.00000
     54      17.0113      0.00000
     55      18.7327      0.00000
     56      18.9919      0.00000


--------------------------------------------------------------------------------------------------------


 soft charge-density along one line, spin component           1
         0         1         2         3         4         5         6         7         8         9
 total charge-density along one line

 soft charge-density along one line, spin component           2
         0         1         2         3         4         5         6         7         8         9
 total charge-density along one line

 pseudopotential strength for first ion, spin component:           1
-35.005   4.786   0.001  -0.000   0.000
  4.786 -11.385   0.004  -0.002   0.000
  0.001   0.004   0.034  -0.004   0.000
 -0.000  -0.002  -0.004   0.034  -0.000
  0.000   0.000   0.000  -0.000   0.037
 pseudopotential strength for first ion, spin component:           2
-35.007   4.785   0.001  -0.000   0.000
  4.785 -11.383   0.005  -0.002   0.000
  0.001   0.005   0.031  -0.004   0.000
 -0.000  -0.002  -0.004   0.032  -0.000
  0.000   0.000   0.000  -0.000   0.035
 total augmentation occupancy for first ion, spin component:           1
  1.999  -0.028  -0.002   0.001  -0.000
 -0.028   0.684   0.011  -0.005  -0.000
 -0.002   0.011   0.033   0.011  -0.000
  0.001  -0.005   0.011   0.032   0.000
 -0.000  -0.000  -0.000   0.000   0.024
 total augmentation occupancy for first ion, spin component:           2
  0.000   0.000   0.000  -0.000   0.000
  0.000  -0.016   0.001  -0.001   0.000
  0.000   0.001  -0.001  -0.000   0.000
 -0.000  -0.001  -0.000  -0.000  -0.000
  0.000   0.000   0.000  -0.000  -0.000


------------------------ aborting loop because EDIFF is reached ----------------------------------------





 total charge

# of ion       s       p       d       tot
------------------------------------------
    1        2.020   0.064   0.000   2.083
    2        2.020   0.064   0.000   2.083
    3        1.554   3.535   0.000   5.089
    4        1.554   3.535   0.000   5.089
    5        1.306   2.460   0.000   3.766
    6        1.308   2.461   0.000   3.769
    7        0.257   6.252   5.905  12.415
    8        0.257   6.252   5.905  12.415
    9        0.256   6.254   5.920  12.430
--------------------------------------------------
tot         10.533  30.876  17.730  59.139



 magnetization (x)

# of ion       s       p       d       tot
------------------------------------------
    1       -0.001  -0.001   0.000  -0.002
    2       -0.001  -0.001   0.000  -0.002
    3        0.012   0.148   0.000   0.160
    4        0.012   0.148   0.000   0.160
    5        0.022   0.114   0.000   0.136
    6        0.018   0.099   0.000   0.117
    7        0.034   0.037   3.564   3.634
    8        0.034   0.037   3.564   3.634
    9        0.034   0.030   3.566   3.630
--------------------------------------------------
tot          0.165   0.609  10.694  11.467

    FORLOC:  cpu time    0.0038: real time    0.0038
    FORHF :  cpu time   78.5092: real time   78.5393
    FORNL :  cpu time    0.0559: real time    0.0559
    STRESS:  cpu time    2.2010: real time    2.2020
    FORCOR:  cpu time    0.1996: real time    0.2003
    OFIELD:  cpu time    0.0005: real time    0.0005

  FORCE on cell =-STRESS in cart. coord.  units (eV):
  Direction    XX          YY          ZZ          XY          YZ          ZX
  --------------------------------------------------------------------------------------
  Alpha Z   227.58724   227.58724   227.58724
  Ewald   -1417.13536 -2025.91385 -2056.92616    -0.14370  -427.29565    -0.12505
  Hartree  1300.98638   850.67200   825.17105    -0.06466  -351.30280    -0.05167
  E(xc)    -303.50458  -303.93732  -303.94000    -0.00029    -0.03575    -0.00030
  Local   -1029.10712    -0.24688    55.87622     0.19519   773.59560     0.16149
  n-local   287.07192   285.95498   285.81767     0.00047    -1.99460     0.00083
  augment   385.12147   404.43763   404.71070     0.00892     3.52049     0.01044
  Kinetic   907.70761   928.45442   928.82786     0.00807     5.01012     0.00965
  Fock     -358.59633  -366.97912  -367.08868    -0.00353    -1.42370    -0.00407
  -------------------------------------------------------------------------------------
  Total       0.13121     0.02910     0.03590     0.00046     0.07371     0.00132
  in kB       1.74609     0.38720     0.47767     0.00616     0.98087     0.01761
  external pressure =        0.87 kB  Pullay stress =        0.00 kB


 VOLUME and BASIS-vectors are now :
 -----------------------------------------------------------------------------
  energy-cutoff  :      520.00
  volume of cell :      120.40
      direct lattice vectors                 reciprocal lattice vectors
     3.793019890  0.000107480  0.000066390     0.263642172 -0.000007022 -0.000003988
     0.000150690  5.634369740  0.041675340    -0.000005118  0.177444206  0.005128565
     0.000080870 -0.162793310  5.632517400    -0.000003070 -0.001312920  0.177502561

  length of vectors
     3.793019892  5.634523868  5.634869469     0.263642172  0.177518305  0.177507417


 FORCES acting on ions:
    Electron-Ion                     Ewald-Force                    Non-Local-Force
 -----------------------------------------------------------------------------------------------
   -.546E-01 -.105E+02 0.158E+02   0.525E-01 0.109E+02 -.160E+02   0.307E-02 -.483E+00 0.211E+00
   -.543E-01 0.161E+02 -.987E+01   0.523E-01 -.164E+02 0.104E+02   0.298E-02 0.229E+00 -.475E+00
   -.849E-01 -.498E+02 0.749E+02   0.909E-01 0.520E+02 -.783E+02   0.261E-03 -.190E+01 0.298E+01
   -.570E-01 0.767E+02 -.470E+02   0.614E-01 -.802E+02 0.491E+02   0.113E-02 0.305E+01 -.179E+01
   -.873E-01 -.160E+02 -.165E+02   0.954E-01 0.152E+02 0.157E+02   -.963E-02 0.737E+00 0.764E+00
   -.462E-01 -.163E+02 -.170E+02   0.513E-01 0.173E+02 0.180E+02   -.607E-02 -.905E+00 -.939E+00
   0.244E+00 0.841E+02 -.634E+02   -.234E+00 -.855E+02 0.643E+02   -.143E-01 0.127E+01 -.850E+00
   0.289E+00 -.664E+02 0.816E+02   -.277E+00 0.674E+02 -.830E+02   -.169E-01 -.890E+00 0.124E+01
   -.115E+00 -.172E+02 -.178E+02   0.107E+00 0.193E+02 0.200E+02   0.449E-02 -.196E+01 -.204E+01
 -----------------------------------------------------------------------------------------------
   0.342E-01 0.840E+00 0.873E+00   -.626E-14 0.284E-13 0.000E+00   -.349E-01 -.857E+00 -.891E+00


 POSITION                                       TOTAL-FORCE (eV/Angst)
 -----------------------------------------------------------------------------------
      1.20545      2.87728      5.39038        -0.000430      0.000975     -0.017260
      1.20548      5.28329      3.07006        -0.000544     -0.017142     -0.000039
      1.20647      1.22727      4.23616         0.006890      0.017424      0.015064
      1.20657      4.18883      1.37928         0.006244      0.013958      0.017748
      3.10507      1.29254      1.34057        -0.001228     -0.012587     -0.013582
      3.10292      4.10121      4.25204        -0.000406     -0.011524     -0.012117
      3.10350      3.73854      1.75094        -0.004125      0.015799     -0.003616
      3.10345      1.61471      3.79938        -0.004542     -0.004466      0.016215
      1.20907      0.18096      0.18704        -0.001858     -0.002438     -0.002414
 -----------------------------------------------------------------------------------
    total drift:                               -0.008678      0.009580      0.009455


--------------------------------------------------------------------------------------------------------



  FREE ENERGIE OF THE ION-ELECTRON SYSTEM (eV)
  ---------------------------------------------------
  free  energy   TOTEN  =       -75.50941966 eV

  energy  without entropy=      -75.50941966  energy(sigma->0) =      -75.50941966



--------------------------------------------------------------------------------------------------------


    POTLOK:  cpu time    2.2207: real time    2.2214


--------------------------------------------------------------------------------------------------------




--------------------------------------------------------------------------------------------------------


  
 reached required accuracy - stopping structural energy minimisation
 writing wavefunctions
     LOOP+:  cpu time 3048.4123: real time 3050.3218
    4ORBIT:  cpu time    0.0000: real time    0.0000



 total charge

# of ion       s       p       d       tot
------------------------------------------
    1        2.020   0.064   0.000   2.083
    2        2.020   0.064   0.000   2.083
    3        1.554   3.535   0.000   5.089
    4        1.554   3.535   0.000   5.089
    5        1.306   2.460   0.000   3.766
    6        1.308   2.461   0.000   3.769
    7        0.257   6.252   5.905  12.415
    8        0.257   6.252   5.905  12.415
    9        0.256   6.254   5.920  12.430
--------------------------------------------------
tot         10.533  30.876  17.730  59.139



 magnetization (x)

# of ion       s       p       d       tot
------------------------------------------
    1       -0.001  -0.001   0.000  -0.002
    2       -0.001  -0.001   0.000  -0.002
    3        0.012   0.148   0.000   0.160
    4        0.012   0.148   0.000   0.160
    5        0.022   0.114   0.000   0.136
    6        0.018   0.099   0.000   0.117
    7        0.034   0.037   3.564   3.634
    8        0.034   0.037   3.564   3.634
    9        0.034   0.030   3.566   3.630
--------------------------------------------------
tot          0.165   0.609  10.694  11.467


 total amount of memory used by VASP MPI-rank0   281792. kBytes
=======================================================================

   base      :      30000. kBytes
   nonl-proj :      98474. kBytes
   fftplans  :       1908. kBytes
   grid      :       8829. kBytes
   one-center:        279. kBytes
   HF        :        259. kBytes
   nonlr-proj:       1802. kBytes
   wavefun   :     117690. kBytes
   fock_wrk  :      22551. kBytes

  
  
 General timing and accounting informations for this job:
 ========================================================
  
                  Total CPU time used (sec):     3088.924
                            User time (sec):     3072.552
                          System time (sec):       16.373
                         Elapsed time (sec):     3093.358
  
                   Maximum memory used (kb):      558616.
                   Average memory used (kb):          N/A
  
                          Minor page faults:       328957
                          Major page faults:            1
                 Voluntary context switches:         2711
