 144 144   0   0
  0.1325381E+02  0.1546422E-08  0.1214491E-08  0.1054520E-08  0.5000000E-15
  1.000000000000000E-004
  CAR 
 unknown system                          
     17.00701134    -54.86998902  301      5.08740878      1.00000000
    -54.870  0.0000E+00  0.0000E+00  0.0000E+00  0.0000E+00
    -54.630  0.0000E+00  0.0000E+00  0.0000E+00  0.0000E+00
    -54.391  0.0000E+00  0.0000E+00  0.0000E+00  0.0000E+00
    -54.151  0.0000E+00  0.0000E+00  0.0000E+00  0.0000E+00
    -53.912  0.0000E+00  0.0000E+00  0.0000E+00  0.0000E+00
    -53.672  0.0000E+00  0.0000E+00  0.0000E+00  0.0000E+00
    -53.432  0.0000E+00  0.0000E+00  0.0000E+00  0.0000E+00
    -53.193  0.0000E+00  0.0000E+00  0.0000E+00  0.0000E+00
    -52.953  0.0000E+00  0.0000E+00  0.0000E+00  0.0000E+00
    -52.714  0.0000E+00  0.0000E+00  0.0000E+00  0.0000E+00
    -52.474  0.0000E+00  0.0000E+00  0.0000E+00  0.0000E+00
    -52.234  0.0000E+00  0.0000E+00  0.0000E+00  0.0000E+00
    -51.995  0.0000E+00  0.0000E+00  0.0000E+00  0.0000E+00
    -51.755  0.3460E-03  0.0000E+00  0.8289E-04  0.0000E+00
    -51.516  0.4982E+02  0.0000E+00  0.1194E+02  0.0000E+00
    -51.276  0.8678E+02  0.0000E+00  0.3273E+02  0.0000E+00
    -51.037  0.1366E+02  0.0000E+00  0.3600E+02  0.0000E+00
    -50.797  0.0000E+00  0.0000E+00  0.3600E+02  0.0000E+00
    -50.557  0.0000E+00  0.0000E+00  0.3600E+02  0.0000E+00
    -50.318  0.1238E-03  0.0000E+00  0.3600E+02  0.0000E+00
    -50.078  0.6690E+02  0.0000E+00  0.5203E+02  0.0000E+00
    -49.839  0.2092E+03  0.0000E+00  0.1022E+03  0.0000E+00
    -49.599  0.2438E+02  0.0000E+00  0.1080E+03  0.0000E+00
    -49.359  0.0000E+00  0.0000E+00  0.1080E+03  0.0000E+00
    -49.120  0.0000E+00  0.0000E+00  0.1080E+03  0.0000E+00
    -48.880  0.0000E+00  0.0000E+00  0.1080E+03  0.0000E+00
    -48.641  0.0000E+00  0.0000E+00  0.1080E+03  0.0000E+00
    -48.401  0.0000E+00  0.0000E+00  0.1080E+03  0.0000E+00
    -48.161  0.0000E+00  0.0000E+00  0.1080E+03  0.0000E+00
    -47.922  0.0000E+00  0.0000E+00  0.1080E+03  0.0000E+00
    -47.682  0.0000E+00  0.0000E+00  0.1080E+03  0.0000E+00
    -47.443  0.0000E+00  0.0000E+00  0.1080E+03  0.0000E+00
    -47.203  0.0000E+00  0.0000E+00  0.1080E+03  0.0000E+00
    -46.964  0.0000E+00  0.6270E-01  0.1080E+03  0.1502E-01
    -46.724  0.0000E+00  0.5102E+02  0.1080E+03  0.1224E+02
    -46.484  0.0000E+00  0.9552E+02  0.1080E+03  0.3512E+02
    -46.245  0.0000E+00  0.1470E+03  0.1080E+03  0.7035E+02
    -46.005  0.0000E+00  0.1571E+03  0.1080E+03  0.1080E+03
    -45.766  0.0000E+00  0.4261E-02  0.1080E+03  0.1080E+03
    -45.526  0.0000E+00  0.0000E+00  0.1080E+03  0.1080E+03
    -45.286  0.0000E+00  0.0000E+00  0.1080E+03  0.1080E+03
    -45.047  0.0000E+00  0.0000E+00  0.1080E+03  0.1080E+03
    -44.807  0.0000E+00  0.0000E+00  0.1080E+03  0.1080E+03
    -44.568  0.0000E+00  0.0000E+00  0.1080E+03  0.1080E+03
    -44.328  0.0000E+00  0.0000E+00  0.1080E+03  0.1080E+03
    -44.088  0.0000E+00  0.0000E+00  0.1080E+03  0.1080E+03
    -43.849  0.0000E+00  0.0000E+00  0.1080E+03  0.1080E+03
    -43.609  0.0000E+00  0.0000E+00  0.1080E+03  0.1080E+03
    -43.370  0.0000E+00  0.0000E+00  0.1080E+03  0.1080E+03
    -43.130  0.0000E+00  0.0000E+00  0.1080E+03  0.1080E+03
    -42.890  0.0000E+00  0.0000E+00  0.1080E+03  0.1080E+03
    -42.651  0.0000E+00  0.0000E+00  0.1080E+03  0.1080E+03
    -42.411  0.0000E+00  0.0000E+00  0.1080E+03  0.1080E+03
    -42.172  0.0000E+00  0.0000E+00  0.1080E+03  0.1080E+03
    -41.932  0.0000E+00  0.0000E+00  0.1080E+03  0.1080E+03
    -41.693  0.0000E+00  0.0000E+00  0.1080E+03  0.1080E+03
    -41.453  0.0000E+00  0.0000E+00  0.1080E+03  0.1080E+03
    -41.213  0.0000E+00  0.0000E+00  0.1080E+03  0.1080E+03
    -40.974  0.0000E+00  0.0000E+00  0.1080E+03  0.1080E+03
    -40.734  0.1173E-08  0.3792E-09  0.1080E+03  0.1080E+03
    -40.495  0.2883E+02  0.2554E+02  0.1149E+03  0.1141E+03
    -40.255  0.4775E+02  0.5128E+02  0.1263E+03  0.1264E+03
    -40.015  0.9925E+02  0.9925E+02  0.1501E+03  0.1502E+03
    -39.776  0.2451E+02  0.2427E+02  0.1560E+03  0.1560E+03
    -39.536  0.0000E+00  0.0000E+00  0.1560E+03  0.1560E+03
    -39.297  0.0000E+00  0.0000E+00  0.1560E+03  0.1560E+03
    -39.057  0.0000E+00  0.0000E+00  0.1560E+03  0.1560E+03
    -38.817  0.0000E+00  0.0000E+00  0.1560E+03  0.1560E+03
    -38.578  0.0000E+00  0.0000E+00  0.1560E+03  0.1560E+03
    -38.338  0.0000E+00  0.0000E+00  0.1560E+03  0.1560E+03
    -38.099  0.0000E+00  0.0000E+00  0.1560E+03  0.1560E+03
    -37.859  0.0000E+00  0.0000E+00  0.1560E+03  0.1560E+03
    -37.620  0.0000E+00  0.0000E+00  0.1560E+03  0.1560E+03
    -37.380  0.0000E+00  0.0000E+00  0.1560E+03  0.1560E+03
    -37.140  0.0000E+00  0.0000E+00  0.1560E+03  0.1560E+03
    -36.901  0.0000E+00  0.0000E+00  0.1560E+03  0.1560E+03
    -36.661  0.0000E+00  0.0000E+00  0.1560E+03  0.1560E+03
    -36.422  0.0000E+00  0.0000E+00  0.1560E+03  0.1560E+03
    -36.182  0.0000E+00  0.0000E+00  0.1560E+03  0.1560E+03
    -35.942  0.0000E+00  0.0000E+00  0.1560E+03  0.1560E+03
    -35.703  0.0000E+00  0.0000E+00  0.1560E+03  0.1560E+03
    -35.463  0.0000E+00  0.0000E+00  0.1560E+03  0.1560E+03
    -35.224  0.0000E+00  0.0000E+00  0.1560E+03  0.1560E+03
    -34.984  0.0000E+00  0.0000E+00  0.1560E+03  0.1560E+03
    -34.744  0.0000E+00  0.0000E+00  0.1560E+03  0.1560E+03
    -34.505  0.0000E+00  0.0000E+00  0.1560E+03  0.1560E+03
    -34.265  0.0000E+00  0.0000E+00  0.1560E+03  0.1560E+03
    -34.026  0.0000E+00  0.0000E+00  0.1560E+03  0.1560E+03
    -33.786  0.0000E+00  0.0000E+00  0.1560E+03  0.1560E+03
    -33.546  0.0000E+00  0.0000E+00  0.1560E+03  0.1560E+03
    -33.307  0.0000E+00  0.0000E+00  0.1560E+03  0.1560E+03
    -33.067  0.0000E+00  0.0000E+00  0.1560E+03  0.1560E+03
    -32.828  0.0000E+00  0.0000E+00  0.1560E+03  0.1560E+03
    -32.588  0.0000E+00  0.0000E+00  0.1560E+03  0.1560E+03
    -32.349  0.0000E+00  0.0000E+00  0.1560E+03  0.1560E+03
    -32.109  0.0000E+00  0.0000E+00  0.1560E+03  0.1560E+03
    -31.869  0.0000E+00  0.0000E+00  0.1560E+03  0.1560E+03
    -31.630  0.0000E+00  0.0000E+00  0.1560E+03  0.1560E+03
    -31.390  0.0000E+00  0.0000E+00  0.1560E+03  0.1560E+03
    -31.151  0.0000E+00  0.0000E+00  0.1560E+03  0.1560E+03
    -30.911  0.0000E+00  0.0000E+00  0.1560E+03  0.1560E+03
    -30.671  0.0000E+00  0.0000E+00  0.1560E+03  0.1560E+03
    -30.432  0.0000E+00  0.0000E+00  0.1560E+03  0.1560E+03
    -30.192  0.0000E+00  0.0000E+00  0.1560E+03  0.1560E+03
    -29.953  0.0000E+00  0.0000E+00  0.1560E+03  0.1560E+03
    -29.713  0.0000E+00  0.0000E+00  0.1560E+03  0.1560E+03
    -29.473  0.0000E+00  0.0000E+00  0.1560E+03  0.1560E+03
    -29.234  0.0000E+00  0.0000E+00  0.1560E+03  0.1560E+03
    -28.994  0.0000E+00  0.0000E+00  0.1560E+03  0.1560E+03
    -28.755  0.0000E+00  0.0000E+00  0.1560E+03  0.1560E+03
    -28.515  0.0000E+00  0.0000E+00  0.1560E+03  0.1560E+03
    -28.275  0.0000E+00  0.0000E+00  0.1560E+03  0.1560E+03
    -28.036  0.0000E+00  0.0000E+00  0.1560E+03  0.1560E+03
    -27.796  0.0000E+00  0.0000E+00  0.1560E+03  0.1560E+03
    -27.557  0.0000E+00  0.0000E+00  0.1560E+03  0.1560E+03
    -27.317  0.0000E+00  0.0000E+00  0.1560E+03  0.1560E+03
    -27.078  0.0000E+00  0.0000E+00  0.1560E+03  0.1560E+03
    -26.838  0.0000E+00  0.0000E+00  0.1560E+03  0.1560E+03
    -26.598  0.0000E+00  0.0000E+00  0.1560E+03  0.1560E+03
    -26.359  0.0000E+00  0.0000E+00  0.1560E+03  0.1560E+03
    -26.119  0.0000E+00  0.0000E+00  0.1560E+03  0.1560E+03
    -25.880  0.0000E+00  0.0000E+00  0.1560E+03  0.1560E+03
    -25.640  0.0000E+00  0.0000E+00  0.1560E+03  0.1560E+03
    -25.400  0.0000E+00  0.0000E+00  0.1560E+03  0.1560E+03
    -25.161  0.0000E+00  0.0000E+00  0.1560E+03  0.1560E+03
    -24.921  0.0000E+00  0.0000E+00  0.1560E+03  0.1560E+03
    -24.682  0.0000E+00  0.0000E+00  0.1560E+03  0.1560E+03
    -24.442  0.0000E+00  0.0000E+00  0.1560E+03  0.1560E+03
    -24.202  0.0000E+00  0.0000E+00  0.1560E+03  0.1560E+03
    -23.963  0.0000E+00  0.0000E+00  0.1560E+03  0.1560E+03
    -23.723  0.0000E+00  0.0000E+00  0.1560E+03  0.1560E+03
    -23.484  0.0000E+00  0.0000E+00  0.1560E+03  0.1560E+03
    -23.244  0.0000E+00  0.0000E+00  0.1560E+03  0.1560E+03
    -23.005  0.0000E+00  0.0000E+00  0.1560E+03  0.1560E+03
    -22.765  0.0000E+00  0.0000E+00  0.1560E+03  0.1560E+03
    -22.525  0.0000E+00  0.0000E+00  0.1560E+03  0.1560E+03
    -22.286  0.0000E+00  0.0000E+00  0.1560E+03  0.1560E+03
    -22.046  0.0000E+00  0.0000E+00  0.1560E+03  0.1560E+03
    -21.807  0.0000E+00  0.0000E+00  0.1560E+03  0.1560E+03
    -21.567  0.0000E+00  0.0000E+00  0.1560E+03  0.1560E+03
    -21.327  0.0000E+00  0.0000E+00  0.1560E+03  0.1560E+03
    -21.088  0.0000E+00  0.0000E+00  0.1560E+03  0.1560E+03
    -20.848  0.0000E+00  0.0000E+00  0.1560E+03  0.1560E+03
    -20.609  0.0000E+00  0.0000E+00  0.1560E+03  0.1560E+03
    -20.369  0.0000E+00  0.0000E+00  0.1560E+03  0.1560E+03
    -20.129  0.0000E+00  0.0000E+00  0.1560E+03  0.1560E+03
    -19.890  0.0000E+00  0.0000E+00  0.1560E+03  0.1560E+03
    -19.650  0.0000E+00  0.0000E+00  0.1560E+03  0.1560E+03
    -19.411  0.0000E+00  0.0000E+00  0.1560E+03  0.1560E+03
    -19.171  0.0000E+00  0.0000E+00  0.1560E+03  0.1560E+03
    -18.931  0.0000E+00  0.0000E+00  0.1560E+03  0.1560E+03
    -18.692  0.0000E+00  0.0000E+00  0.1560E+03  0.1560E+03
    -18.452  0.0000E+00  0.0000E+00  0.1560E+03  0.1560E+03
    -18.213  0.0000E+00  0.0000E+00  0.1560E+03  0.1560E+03
    -17.973  0.0000E+00  0.0000E+00  0.1560E+03  0.1560E+03
    -17.734  0.0000E+00  0.0000E+00  0.1560E+03  0.1560E+03
    -17.494  0.0000E+00  0.0000E+00  0.1560E+03  0.1560E+03
    -17.254  0.0000E+00  0.0000E+00  0.1560E+03  0.1560E+03
    -17.015  0.0000E+00  0.0000E+00  0.1560E+03  0.1560E+03
    -16.775  0.0000E+00  0.0000E+00  0.1560E+03  0.1560E+03
    -16.536  0.0000E+00  0.0000E+00  0.1560E+03  0.1560E+03
    -16.296  0.0000E+00  0.0000E+00  0.1560E+03  0.1560E+03
    -16.056  0.0000E+00  0.0000E+00  0.1560E+03  0.1560E+03
    -15.817  0.0000E+00  0.0000E+00  0.1560E+03  0.1560E+03
    -15.577  0.0000E+00  0.0000E+00  0.1560E+03  0.1560E+03
    -15.338  0.0000E+00  0.0000E+00  0.1560E+03  0.1560E+03
    -15.098  0.0000E+00  0.0000E+00  0.1560E+03  0.1560E+03
    -14.858  0.0000E+00  0.0000E+00  0.1560E+03  0.1560E+03
    -14.619  0.0000E+00  0.0000E+00  0.1560E+03  0.1560E+03
    -14.379  0.0000E+00  0.0000E+00  0.1560E+03  0.1560E+03
    -14.140  0.0000E+00  0.0000E+00  0.1560E+03  0.1560E+03
    -13.900  0.1305E-02  0.0000E+00  0.1560E+03  0.1560E+03
    -13.661  0.2222E+02  0.6360E-13  0.1613E+03  0.1560E+03
    -13.421  0.2768E+02  0.1818E+01  0.1680E+03  0.1564E+03
    -13.181  0.8824E+01  0.4447E+02  0.1701E+03  0.1671E+03
    -12.942  0.3149E+02  0.4489E+01  0.1776E+03  0.1682E+03
    -12.702  0.9953E+01  0.4199E+02  0.1800E+03  0.1782E+03
    -12.463  0.0000E+00  0.7405E+01  0.1800E+03  0.1800E+03
    -12.223  0.0000E+00  0.0000E+00  0.1800E+03  0.1800E+03
    -11.983  0.0000E+00  0.0000E+00  0.1800E+03  0.1800E+03
    -11.744  0.0000E+00  0.0000E+00  0.1800E+03  0.1800E+03
    -11.504  0.0000E+00  0.0000E+00  0.1800E+03  0.1800E+03
    -11.265  0.0000E+00  0.0000E+00  0.1800E+03  0.1800E+03
    -11.025  0.0000E+00  0.0000E+00  0.1800E+03  0.1800E+03
    -10.785  0.0000E+00  0.0000E+00  0.1800E+03  0.1800E+03
    -10.546  0.0000E+00  0.0000E+00  0.1800E+03  0.1800E+03
    -10.306  0.0000E+00  0.0000E+00  0.1800E+03  0.1800E+03
    -10.067  0.0000E+00  0.0000E+00  0.1800E+03  0.1800E+03
     -9.827  0.0000E+00  0.0000E+00  0.1800E+03  0.1800E+03
     -9.587  0.0000E+00  0.0000E+00  0.1800E+03  0.1800E+03
     -9.348  0.0000E+00  0.0000E+00  0.1800E+03  0.1800E+03
     -9.108  0.0000E+00  0.0000E+00  0.1800E+03  0.1800E+03
     -8.869  0.0000E+00  0.0000E+00  0.1800E+03  0.1800E+03
     -8.629  0.0000E+00  0.0000E+00  0.1800E+03  0.1800E+03
     -8.390  0.0000E+00  0.0000E+00  0.1800E+03  0.1800E+03
     -8.150  0.0000E+00  0.0000E+00  0.1800E+03  0.1800E+03
     -7.910  0.1980E-02  0.0000E+00  0.1800E+03  0.1800E+03
     -7.671  0.9297E+01  0.1506E-01  0.1822E+03  0.1800E+03
     -7.431  0.2306E+02  0.1188E+02  0.1878E+03  0.1828E+03
     -7.192  0.5552E+02  0.2850E+02  0.2011E+03  0.1897E+03
     -6.952  0.5835E+02  0.5971E+02  0.2150E+03  0.2040E+03
     -6.712  0.4014E+01  0.4678E+02  0.2160E+03  0.2152E+03
     -6.473  0.0000E+00  0.3373E+01  0.2160E+03  0.2160E+03
     -6.233  0.0000E+00  0.0000E+00  0.2160E+03  0.2160E+03
     -5.994  0.0000E+00  0.0000E+00  0.2160E+03  0.2160E+03
     -5.754  0.0000E+00  0.0000E+00  0.2160E+03  0.2160E+03
     -5.514  0.0000E+00  0.0000E+00  0.2160E+03  0.2160E+03
     -5.275  0.0000E+00  0.0000E+00  0.2160E+03  0.2160E+03
     -5.035  0.0000E+00  0.0000E+00  0.2160E+03  0.2160E+03
     -4.796  0.0000E+00  0.0000E+00  0.2160E+03  0.2160E+03
     -4.556  0.0000E+00  0.0000E+00  0.2160E+03  0.2160E+03
     -4.316  0.0000E+00  0.0000E+00  0.2160E+03  0.2160E+03
     -4.077  0.0000E+00  0.0000E+00  0.2160E+03  0.2160E+03
     -3.837  0.0000E+00  0.0000E+00  0.2160E+03  0.2160E+03
     -3.598  0.0000E+00  0.0000E+00  0.2160E+03  0.2160E+03
     -3.358  0.0000E+00  0.0000E+00  0.2160E+03  0.2160E+03
     -3.119  0.0000E+00  0.0000E+00  0.2160E+03  0.2160E+03
     -2.879  0.1478E-13  0.0000E+00  0.2160E+03  0.2160E+03
     -2.639  0.8205E+00  0.0000E+00  0.2162E+03  0.2160E+03
     -2.400  0.1031E+02  0.0000E+00  0.2187E+03  0.2160E+03
     -2.160  0.2040E+02  0.0000E+00  0.2236E+03  0.2160E+03
     -1.921  0.1937E+01  0.0000E+00  0.2240E+03  0.2160E+03
     -1.681  0.3452E+02  0.0000E+00  0.2323E+03  0.2160E+03
     -1.441  0.1944E+02  0.3604E-15  0.2369E+03  0.2160E+03
     -1.202  0.4419E+02  0.8356E-01  0.2475E+03  0.2160E+03
     -0.962  0.4949E+02  0.4409E+01  0.2594E+03  0.2171E+03
     -0.723  0.7478E+02  0.1405E+02  0.2773E+03  0.2204E+03
     -0.483  0.1031E+03  0.1529E+02  0.3020E+03  0.2241E+03
     -0.243  0.8555E+02  0.1951E+02  0.3225E+03  0.2288E+03
     -0.004  0.1104E+03  0.4129E+02  0.3490E+03  0.2387E+03
      0.236  0.7014E+02  0.3396E+02  0.3658E+03  0.2468E+03
      0.475  0.3839E+02  0.4209E+02  0.3750E+03  0.2569E+03
      0.715  0.4569E+02  0.3370E+02  0.3859E+03  0.2650E+03
      0.954  0.4868E+02  0.5282E+02  0.3976E+03  0.2776E+03
      1.194  0.5542E+02  0.6050E+02  0.4108E+03  0.2921E+03
      1.434  0.6421E+02  0.4441E+02  0.4262E+03  0.3028E+03
      1.673  0.1009E+03  0.4015E+02  0.4504E+03  0.3124E+03
      1.913  0.5277E+02  0.3839E+02  0.4630E+03  0.3216E+03
      2.152  0.3864E+02  0.3742E+02  0.4723E+03  0.3305E+03
      2.392  0.4655E+02  0.3824E+02  0.4835E+03  0.3397E+03
      2.632  0.4783E+02  0.4928E+02  0.4949E+03  0.3515E+03
      2.871  0.4354E+02  0.6297E+02  0.5053E+03  0.3666E+03
      3.111  0.4018E+02  0.5881E+02  0.5150E+03  0.3807E+03
      3.350  0.4732E+02  0.4807E+02  0.5263E+03  0.3922E+03
      3.590  0.5249E+02  0.2961E+02  0.5389E+03  0.3993E+03
      3.830  0.4548E+02  0.6131E+02  0.5498E+03  0.4140E+03
      4.069  0.3196E+02  0.7378E+02  0.5574E+03  0.4317E+03
      4.309  0.4252E+02  0.1418E+01  0.5676E+03  0.4320E+03
      4.548  0.2373E+02  0.0000E+00  0.5733E+03  0.4320E+03
      4.788  0.1028E+02  0.0000E+00  0.5758E+03  0.4320E+03
      5.028  0.9344E+00  0.0000E+00  0.5760E+03  0.4320E+03
      5.267  0.0000E+00  0.0000E+00  0.5760E+03  0.4320E+03
      5.507  0.0000E+00  0.0000E+00  0.5760E+03  0.4320E+03
      5.746  0.0000E+00  0.0000E+00  0.5760E+03  0.4320E+03
      5.986  0.0000E+00  0.3314E-11  0.5760E+03  0.4320E+03
      6.225  0.0000E+00  0.1368E+00  0.5760E+03  0.4320E+03
      6.465  0.0000E+00  0.8033E+01  0.5760E+03  0.4340E+03
      6.705  0.0000E+00  0.3009E+02  0.5760E+03  0.4412E+03
      6.944  0.5364E-12  0.4319E+02  0.5760E+03  0.4515E+03
      7.184  0.1030E+00  0.7303E+02  0.5760E+03  0.4690E+03
      7.423  0.1345E+00  0.8099E+02  0.5761E+03  0.4884E+03
      7.663  0.8804E+00  0.6538E+02  0.5763E+03  0.5041E+03
      7.903  0.3489E+01  0.8795E+02  0.5771E+03  0.5252E+03
      8.142  0.4269E+01  0.7130E+02  0.5781E+03  0.5422E+03
      8.382  0.6986E+01  0.5458E+02  0.5798E+03  0.5553E+03
      8.621  0.1626E+02  0.3725E+02  0.5837E+03  0.5642E+03
      8.861  0.2533E+02  0.3929E+02  0.5898E+03  0.5737E+03
      9.101  0.1925E+02  0.1946E+02  0.5944E+03  0.5783E+03
      9.340  0.2530E+02  0.1380E+02  0.6004E+03  0.5816E+03
      9.580  0.3119E+02  0.2056E+02  0.6079E+03  0.5865E+03
      9.819  0.2669E+02  0.2996E+02  0.6143E+03  0.5937E+03
     10.059  0.2969E+02  0.2656E+02  0.6214E+03  0.6001E+03
     10.298  0.2279E+02  0.3466E+02  0.6269E+03  0.6084E+03
     10.538  0.2038E+02  0.3554E+02  0.6318E+03  0.6169E+03
     10.778  0.2843E+02  0.2792E+02  0.6386E+03  0.6236E+03
     11.017  0.3898E+02  0.2253E+02  0.6479E+03  0.6290E+03
     11.257  0.3940E+02  0.2152E+02  0.6574E+03  0.6341E+03
     11.496  0.3728E+02  0.3227E+02  0.6663E+03  0.6419E+03
     11.736  0.4478E+02  0.3877E+02  0.6770E+03  0.6512E+03
     11.976  0.3858E+02  0.4253E+02  0.6863E+03  0.6614E+03
     12.215  0.3853E+02  0.5191E+02  0.6955E+03  0.6738E+03
     12.455  0.3984E+02  0.4690E+02  0.7050E+03  0.6850E+03
     12.694  0.3660E+02  0.3599E+02  0.7138E+03  0.6937E+03
     12.934  0.3448E+02  0.4121E+02  0.7221E+03  0.7035E+03
     13.174  0.2305E+02  0.3985E+02  0.7276E+03  0.7131E+03
     13.413  0.1741E+01  0.3420E+02  0.7280E+03  0.7213E+03
     13.653  0.0000E+00  0.2423E+02  0.7280E+03  0.7271E+03
     13.892  0.0000E+00  0.3864E+01  0.7280E+03  0.7280E+03
     14.132  0.0000E+00  0.3745E-05  0.7280E+03  0.7280E+03
     14.372  0.0000E+00  0.0000E+00  0.7280E+03  0.7280E+03
     14.611  0.0000E+00  0.0000E+00  0.7280E+03  0.7280E+03
     14.851  0.0000E+00  0.0000E+00  0.7280E+03  0.7280E+03
     15.090  0.0000E+00  0.0000E+00  0.7280E+03  0.7280E+03
     15.330  0.0000E+00  0.0000E+00  0.7280E+03  0.7280E+03
     15.569  0.0000E+00  0.0000E+00  0.7280E+03  0.7280E+03
     15.809  0.0000E+00  0.0000E+00  0.7280E+03  0.7280E+03
     16.049  0.0000E+00  0.0000E+00  0.7280E+03  0.7280E+03
     16.288  0.0000E+00  0.0000E+00  0.7280E+03  0.7280E+03
     16.528  0.0000E+00  0.0000E+00  0.7280E+03  0.7280E+03
     16.767  0.0000E+00  0.0000E+00  0.7280E+03  0.7280E+03
     17.007  0.0000E+00  0.0000E+00  0.7280E+03  0.7280E+03
