 120 120   0   0
  0.1228332E+02  0.1173587E-08  0.1121847E-08  0.1119562E-08  0.5000000E-15
  1.000000000000000E-004
  CAR 
 unknown system                          
     16.73875632    -54.73118406  301      4.41019160      1.00000000
    -54.731  0.0000E+00  0.0000E+00  0.0000E+00  0.0000E+00
    -54.493  0.0000E+00  0.0000E+00  0.0000E+00  0.0000E+00
    -54.255  0.0000E+00  0.0000E+00  0.0000E+00  0.0000E+00
    -54.016  0.0000E+00  0.0000E+00  0.0000E+00  0.0000E+00
    -53.778  0.0000E+00  0.0000E+00  0.0000E+00  0.0000E+00
    -53.540  0.0000E+00  0.0000E+00  0.0000E+00  0.0000E+00
    -53.302  0.0000E+00  0.0000E+00  0.0000E+00  0.0000E+00
    -53.064  0.0000E+00  0.0000E+00  0.0000E+00  0.0000E+00
    -52.825  0.0000E+00  0.0000E+00  0.0000E+00  0.0000E+00
    -52.587  0.0000E+00  0.0000E+00  0.0000E+00  0.0000E+00
    -52.349  0.0000E+00  0.0000E+00  0.0000E+00  0.0000E+00
    -52.111  0.0000E+00  0.0000E+00  0.0000E+00  0.0000E+00
    -51.872  0.0000E+00  0.0000E+00  0.0000E+00  0.0000E+00
    -51.634  0.2577E-03  0.0000E+00  0.6140E-04  0.0000E+00
    -51.396  0.9786E+02  0.0000E+00  0.2331E+02  0.0000E+00
    -51.158  0.2877E+01  0.0000E+00  0.2400E+02  0.0000E+00
    -50.919  0.0000E+00  0.0000E+00  0.2400E+02  0.0000E+00
    -50.681  0.0000E+00  0.0000E+00  0.2400E+02  0.0000E+00
    -50.443  0.2538E-09  0.0000E+00  0.2400E+02  0.0000E+00
    -50.205  0.4325E+02  0.0000E+00  0.3430E+02  0.0000E+00
    -49.967  0.1321E+03  0.0000E+00  0.6577E+02  0.0000E+00
    -49.728  0.2614E+02  0.0000E+00  0.7200E+02  0.0000E+00
    -49.490  0.0000E+00  0.0000E+00  0.7200E+02  0.0000E+00
    -49.252  0.0000E+00  0.0000E+00  0.7200E+02  0.0000E+00
    -49.014  0.0000E+00  0.0000E+00  0.7200E+02  0.0000E+00
    -48.775  0.0000E+00  0.0000E+00  0.7200E+02  0.0000E+00
    -48.537  0.0000E+00  0.0000E+00  0.7200E+02  0.0000E+00
    -48.299  0.0000E+00  0.0000E+00  0.7200E+02  0.0000E+00
    -48.061  0.0000E+00  0.0000E+00  0.7200E+02  0.0000E+00
    -47.822  0.0000E+00  0.0000E+00  0.7200E+02  0.0000E+00
    -47.584  0.0000E+00  0.0000E+00  0.7200E+02  0.0000E+00
    -47.346  0.0000E+00  0.0000E+00  0.7200E+02  0.0000E+00
    -47.108  0.0000E+00  0.0000E+00  0.7200E+02  0.0000E+00
    -46.869  0.0000E+00  0.6577E-01  0.7200E+02  0.1567E-01
    -46.631  0.0000E+00  0.1006E+03  0.7200E+02  0.2398E+02
    -46.393  0.0000E+00  0.9651E+02  0.7200E+02  0.4697E+02
    -46.155  0.0000E+00  0.1051E+03  0.7200E+02  0.7200E+02
    -45.917  0.0000E+00  0.0000E+00  0.7200E+02  0.7200E+02
    -45.678  0.0000E+00  0.0000E+00  0.7200E+02  0.7200E+02
    -45.440  0.0000E+00  0.0000E+00  0.7200E+02  0.7200E+02
    -45.202  0.0000E+00  0.0000E+00  0.7200E+02  0.7200E+02
    -44.964  0.0000E+00  0.0000E+00  0.7200E+02  0.7200E+02
    -44.725  0.0000E+00  0.0000E+00  0.7200E+02  0.7200E+02
    -44.487  0.0000E+00  0.0000E+00  0.7200E+02  0.7200E+02
    -44.249  0.0000E+00  0.0000E+00  0.7200E+02  0.7200E+02
    -44.011  0.0000E+00  0.0000E+00  0.7200E+02  0.7200E+02
    -43.772  0.0000E+00  0.0000E+00  0.7200E+02  0.7200E+02
    -43.534  0.0000E+00  0.0000E+00  0.7200E+02  0.7200E+02
    -43.296  0.0000E+00  0.0000E+00  0.7200E+02  0.7200E+02
    -43.058  0.0000E+00  0.0000E+00  0.7200E+02  0.7200E+02
    -42.820  0.0000E+00  0.0000E+00  0.7200E+02  0.7200E+02
    -42.581  0.0000E+00  0.0000E+00  0.7200E+02  0.7200E+02
    -42.343  0.0000E+00  0.0000E+00  0.7200E+02  0.7200E+02
    -42.105  0.0000E+00  0.0000E+00  0.7200E+02  0.7200E+02
    -41.867  0.0000E+00  0.0000E+00  0.7200E+02  0.7200E+02
    -41.628  0.0000E+00  0.0000E+00  0.7200E+02  0.7200E+02
    -41.390  0.0000E+00  0.0000E+00  0.7200E+02  0.7200E+02
    -41.152  0.0000E+00  0.0000E+00  0.7200E+02  0.7200E+02
    -40.914  0.0000E+00  0.0000E+00  0.7200E+02  0.7200E+02
    -40.675  0.3410E-03  0.1060E-03  0.7200E+02  0.7200E+02
    -40.437  0.9906E+02  0.9775E+02  0.9560E+02  0.9529E+02
    -40.199  0.1023E+03  0.1036E+03  0.1200E+03  0.1200E+03
    -39.961  0.1376E+00  0.1406E+00  0.1200E+03  0.1200E+03
    -39.722  0.0000E+00  0.0000E+00  0.1200E+03  0.1200E+03
    -39.484  0.0000E+00  0.0000E+00  0.1200E+03  0.1200E+03
    -39.246  0.0000E+00  0.0000E+00  0.1200E+03  0.1200E+03
    -39.008  0.0000E+00  0.0000E+00  0.1200E+03  0.1200E+03
    -38.770  0.0000E+00  0.0000E+00  0.1200E+03  0.1200E+03
    -38.531  0.0000E+00  0.0000E+00  0.1200E+03  0.1200E+03
    -38.293  0.0000E+00  0.0000E+00  0.1200E+03  0.1200E+03
    -38.055  0.0000E+00  0.0000E+00  0.1200E+03  0.1200E+03
    -37.817  0.0000E+00  0.0000E+00  0.1200E+03  0.1200E+03
    -37.578  0.0000E+00  0.0000E+00  0.1200E+03  0.1200E+03
    -37.340  0.0000E+00  0.0000E+00  0.1200E+03  0.1200E+03
    -37.102  0.0000E+00  0.0000E+00  0.1200E+03  0.1200E+03
    -36.864  0.0000E+00  0.0000E+00  0.1200E+03  0.1200E+03
    -36.625  0.0000E+00  0.0000E+00  0.1200E+03  0.1200E+03
    -36.387  0.0000E+00  0.0000E+00  0.1200E+03  0.1200E+03
    -36.149  0.0000E+00  0.0000E+00  0.1200E+03  0.1200E+03
    -35.911  0.0000E+00  0.0000E+00  0.1200E+03  0.1200E+03
    -35.673  0.0000E+00  0.0000E+00  0.1200E+03  0.1200E+03
    -35.434  0.0000E+00  0.0000E+00  0.1200E+03  0.1200E+03
    -35.196  0.0000E+00  0.0000E+00  0.1200E+03  0.1200E+03
    -34.958  0.0000E+00  0.0000E+00  0.1200E+03  0.1200E+03
    -34.720  0.0000E+00  0.0000E+00  0.1200E+03  0.1200E+03
    -34.481  0.0000E+00  0.0000E+00  0.1200E+03  0.1200E+03
    -34.243  0.0000E+00  0.0000E+00  0.1200E+03  0.1200E+03
    -34.005  0.0000E+00  0.0000E+00  0.1200E+03  0.1200E+03
    -33.767  0.0000E+00  0.0000E+00  0.1200E+03  0.1200E+03
    -33.528  0.0000E+00  0.0000E+00  0.1200E+03  0.1200E+03
    -33.290  0.0000E+00  0.0000E+00  0.1200E+03  0.1200E+03
    -33.052  0.0000E+00  0.0000E+00  0.1200E+03  0.1200E+03
    -32.814  0.0000E+00  0.0000E+00  0.1200E+03  0.1200E+03
    -32.576  0.0000E+00  0.0000E+00  0.1200E+03  0.1200E+03
    -32.337  0.0000E+00  0.0000E+00  0.1200E+03  0.1200E+03
    -32.099  0.0000E+00  0.0000E+00  0.1200E+03  0.1200E+03
    -31.861  0.0000E+00  0.0000E+00  0.1200E+03  0.1200E+03
    -31.623  0.0000E+00  0.0000E+00  0.1200E+03  0.1200E+03
    -31.384  0.0000E+00  0.0000E+00  0.1200E+03  0.1200E+03
    -31.146  0.0000E+00  0.0000E+00  0.1200E+03  0.1200E+03
    -30.908  0.0000E+00  0.0000E+00  0.1200E+03  0.1200E+03
    -30.670  0.0000E+00  0.0000E+00  0.1200E+03  0.1200E+03
    -30.431  0.0000E+00  0.0000E+00  0.1200E+03  0.1200E+03
    -30.193  0.0000E+00  0.0000E+00  0.1200E+03  0.1200E+03
    -29.955  0.0000E+00  0.0000E+00  0.1200E+03  0.1200E+03
    -29.717  0.0000E+00  0.0000E+00  0.1200E+03  0.1200E+03
    -29.478  0.0000E+00  0.0000E+00  0.1200E+03  0.1200E+03
    -29.240  0.0000E+00  0.0000E+00  0.1200E+03  0.1200E+03
    -29.002  0.0000E+00  0.0000E+00  0.1200E+03  0.1200E+03
    -28.764  0.0000E+00  0.0000E+00  0.1200E+03  0.1200E+03
    -28.526  0.0000E+00  0.0000E+00  0.1200E+03  0.1200E+03
    -28.287  0.0000E+00  0.0000E+00  0.1200E+03  0.1200E+03
    -28.049  0.0000E+00  0.0000E+00  0.1200E+03  0.1200E+03
    -27.811  0.0000E+00  0.0000E+00  0.1200E+03  0.1200E+03
    -27.573  0.0000E+00  0.0000E+00  0.1200E+03  0.1200E+03
    -27.334  0.0000E+00  0.0000E+00  0.1200E+03  0.1200E+03
    -27.096  0.0000E+00  0.0000E+00  0.1200E+03  0.1200E+03
    -26.858  0.0000E+00  0.0000E+00  0.1200E+03  0.1200E+03
    -26.620  0.0000E+00  0.0000E+00  0.1200E+03  0.1200E+03
    -26.381  0.0000E+00  0.0000E+00  0.1200E+03  0.1200E+03
    -26.143  0.0000E+00  0.0000E+00  0.1200E+03  0.1200E+03
    -25.905  0.0000E+00  0.0000E+00  0.1200E+03  0.1200E+03
    -25.667  0.0000E+00  0.0000E+00  0.1200E+03  0.1200E+03
    -25.429  0.0000E+00  0.0000E+00  0.1200E+03  0.1200E+03
    -25.190  0.0000E+00  0.0000E+00  0.1200E+03  0.1200E+03
    -24.952  0.0000E+00  0.0000E+00  0.1200E+03  0.1200E+03
    -24.714  0.0000E+00  0.0000E+00  0.1200E+03  0.1200E+03
    -24.476  0.0000E+00  0.0000E+00  0.1200E+03  0.1200E+03
    -24.237  0.0000E+00  0.0000E+00  0.1200E+03  0.1200E+03
    -23.999  0.0000E+00  0.0000E+00  0.1200E+03  0.1200E+03
    -23.761  0.0000E+00  0.0000E+00  0.1200E+03  0.1200E+03
    -23.523  0.0000E+00  0.0000E+00  0.1200E+03  0.1200E+03
    -23.284  0.0000E+00  0.0000E+00  0.1200E+03  0.1200E+03
    -23.046  0.0000E+00  0.0000E+00  0.1200E+03  0.1200E+03
    -22.808  0.0000E+00  0.0000E+00  0.1200E+03  0.1200E+03
    -22.570  0.0000E+00  0.0000E+00  0.1200E+03  0.1200E+03
    -22.331  0.0000E+00  0.0000E+00  0.1200E+03  0.1200E+03
    -22.093  0.0000E+00  0.0000E+00  0.1200E+03  0.1200E+03
    -21.855  0.0000E+00  0.0000E+00  0.1200E+03  0.1200E+03
    -21.617  0.0000E+00  0.0000E+00  0.1200E+03  0.1200E+03
    -21.379  0.0000E+00  0.0000E+00  0.1200E+03  0.1200E+03
    -21.140  0.0000E+00  0.0000E+00  0.1200E+03  0.1200E+03
    -20.902  0.0000E+00  0.0000E+00  0.1200E+03  0.1200E+03
    -20.664  0.0000E+00  0.0000E+00  0.1200E+03  0.1200E+03
    -20.426  0.0000E+00  0.0000E+00  0.1200E+03  0.1200E+03
    -20.187  0.0000E+00  0.0000E+00  0.1200E+03  0.1200E+03
    -19.949  0.0000E+00  0.0000E+00  0.1200E+03  0.1200E+03
    -19.711  0.0000E+00  0.0000E+00  0.1200E+03  0.1200E+03
    -19.473  0.0000E+00  0.0000E+00  0.1200E+03  0.1200E+03
    -19.234  0.0000E+00  0.0000E+00  0.1200E+03  0.1200E+03
    -18.996  0.0000E+00  0.0000E+00  0.1200E+03  0.1200E+03
    -18.758  0.0000E+00  0.0000E+00  0.1200E+03  0.1200E+03
    -18.520  0.0000E+00  0.0000E+00  0.1200E+03  0.1200E+03
    -18.282  0.0000E+00  0.0000E+00  0.1200E+03  0.1200E+03
    -18.043  0.0000E+00  0.0000E+00  0.1200E+03  0.1200E+03
    -17.805  0.0000E+00  0.0000E+00  0.1200E+03  0.1200E+03
    -17.567  0.0000E+00  0.0000E+00  0.1200E+03  0.1200E+03
    -17.329  0.0000E+00  0.0000E+00  0.1200E+03  0.1200E+03
    -17.090  0.0000E+00  0.0000E+00  0.1200E+03  0.1200E+03
    -16.852  0.0000E+00  0.0000E+00  0.1200E+03  0.1200E+03
    -16.614  0.0000E+00  0.0000E+00  0.1200E+03  0.1200E+03
    -16.376  0.0000E+00  0.0000E+00  0.1200E+03  0.1200E+03
    -16.137  0.0000E+00  0.0000E+00  0.1200E+03  0.1200E+03
    -15.899  0.0000E+00  0.0000E+00  0.1200E+03  0.1200E+03
    -15.661  0.0000E+00  0.0000E+00  0.1200E+03  0.1200E+03
    -15.423  0.0000E+00  0.0000E+00  0.1200E+03  0.1200E+03
    -15.184  0.0000E+00  0.0000E+00  0.1200E+03  0.1200E+03
    -14.946  0.0000E+00  0.0000E+00  0.1200E+03  0.1200E+03
    -14.708  0.0000E+00  0.0000E+00  0.1200E+03  0.1200E+03
    -14.470  0.0000E+00  0.0000E+00  0.1200E+03  0.1200E+03
    -14.232  0.0000E+00  0.0000E+00  0.1200E+03  0.1200E+03
    -13.993  0.0000E+00  0.0000E+00  0.1200E+03  0.1200E+03
    -13.755  0.3017E-08  0.0000E+00  0.1200E+03  0.1200E+03
    -13.517  0.1010E+02  0.7508E-15  0.1224E+03  0.1200E+03
    -13.279  0.5992E+02  0.4443E+00  0.1367E+03  0.1201E+03
    -13.040  0.3072E+02  0.6863E+02  0.1440E+03  0.1365E+03
    -12.802  0.1623E-03  0.3167E+02  0.1440E+03  0.1440E+03
    -12.564  0.0000E+00  0.1645E-04  0.1440E+03  0.1440E+03
    -12.326  0.0000E+00  0.0000E+00  0.1440E+03  0.1440E+03
    -12.087  0.0000E+00  0.0000E+00  0.1440E+03  0.1440E+03
    -11.849  0.0000E+00  0.0000E+00  0.1440E+03  0.1440E+03
    -11.611  0.0000E+00  0.0000E+00  0.1440E+03  0.1440E+03
    -11.373  0.0000E+00  0.0000E+00  0.1440E+03  0.1440E+03
    -11.135  0.0000E+00  0.0000E+00  0.1440E+03  0.1440E+03
    -10.896  0.0000E+00  0.0000E+00  0.1440E+03  0.1440E+03
    -10.658  0.0000E+00  0.0000E+00  0.1440E+03  0.1440E+03
    -10.420  0.0000E+00  0.0000E+00  0.1440E+03  0.1440E+03
    -10.182  0.0000E+00  0.0000E+00  0.1440E+03  0.1440E+03
     -9.943  0.0000E+00  0.0000E+00  0.1440E+03  0.1440E+03
     -9.705  0.0000E+00  0.0000E+00  0.1440E+03  0.1440E+03
     -9.467  0.0000E+00  0.0000E+00  0.1440E+03  0.1440E+03
     -9.229  0.0000E+00  0.0000E+00  0.1440E+03  0.1440E+03
     -8.990  0.0000E+00  0.0000E+00  0.1440E+03  0.1440E+03
     -8.752  0.0000E+00  0.0000E+00  0.1440E+03  0.1440E+03
     -8.514  0.0000E+00  0.0000E+00  0.1440E+03  0.1440E+03
     -8.276  0.0000E+00  0.0000E+00  0.1440E+03  0.1440E+03
     -8.037  0.0000E+00  0.0000E+00  0.1440E+03  0.1440E+03
     -7.799  0.1695E-01  0.7163E-15  0.1440E+03  0.1440E+03
     -7.561  0.1908E+02  0.1761E+00  0.1486E+03  0.1440E+03
     -7.323  0.4857E+02  0.2979E+02  0.1601E+03  0.1511E+03
     -7.085  0.3235E+02  0.4932E+02  0.1678E+03  0.1629E+03
     -6.846  0.7266E+00  0.2089E+02  0.1680E+03  0.1679E+03
     -6.608  0.0000E+00  0.5597E+00  0.1680E+03  0.1680E+03
     -6.370  0.0000E+00  0.0000E+00  0.1680E+03  0.1680E+03
     -6.132  0.0000E+00  0.0000E+00  0.1680E+03  0.1680E+03
     -5.893  0.0000E+00  0.0000E+00  0.1680E+03  0.1680E+03
     -5.655  0.0000E+00  0.0000E+00  0.1680E+03  0.1680E+03
     -5.417  0.0000E+00  0.0000E+00  0.1680E+03  0.1680E+03
     -5.179  0.0000E+00  0.0000E+00  0.1680E+03  0.1680E+03
     -4.940  0.0000E+00  0.0000E+00  0.1680E+03  0.1680E+03
     -4.702  0.0000E+00  0.0000E+00  0.1680E+03  0.1680E+03
     -4.464  0.0000E+00  0.0000E+00  0.1680E+03  0.1680E+03
     -4.226  0.0000E+00  0.0000E+00  0.1680E+03  0.1680E+03
     -3.988  0.0000E+00  0.0000E+00  0.1680E+03  0.1680E+03
     -3.749  0.0000E+00  0.0000E+00  0.1680E+03  0.1680E+03
     -3.511  0.0000E+00  0.0000E+00  0.1680E+03  0.1680E+03
     -3.273  0.0000E+00  0.0000E+00  0.1680E+03  0.1680E+03
     -3.035  0.0000E+00  0.0000E+00  0.1680E+03  0.1680E+03
     -2.796  0.0000E+00  0.0000E+00  0.1680E+03  0.1680E+03
     -2.558  0.0000E+00  0.0000E+00  0.1680E+03  0.1680E+03
     -2.320  0.0000E+00  0.0000E+00  0.1680E+03  0.1680E+03
     -2.082  0.5033E-05  0.0000E+00  0.1680E+03  0.1680E+03
     -1.843  0.8977E+01  0.0000E+00  0.1701E+03  0.1680E+03
     -1.605  0.5902E+02  0.0000E+00  0.1842E+03  0.1680E+03
     -1.367  0.4030E+02  0.0000E+00  0.1938E+03  0.1680E+03
     -1.129  0.3282E+02  0.0000E+00  0.2016E+03  0.1680E+03
     -0.890  0.5458E+02  0.6152E-08  0.2146E+03  0.1680E+03
     -0.652  0.5307E+02  0.2029E+01  0.2273E+03  0.1685E+03
     -0.414  0.6737E+02  0.1775E+02  0.2433E+03  0.1727E+03
     -0.176  0.5360E+02  0.3888E+02  0.2561E+03  0.1820E+03
      0.062  0.3461E+02  0.3457E+02  0.2643E+03  0.1902E+03
      0.301  0.5536E+02  0.2357E+02  0.2775E+03  0.1958E+03
      0.539  0.4735E+02  0.4870E+02  0.2888E+03  0.2074E+03
      0.777  0.3242E+02  0.4880E+02  0.2965E+03  0.2191E+03
      1.015  0.5003E+02  0.6851E+02  0.3084E+03  0.2354E+03
      1.254  0.4960E+02  0.2500E+02  0.3203E+03  0.2413E+03
      1.492  0.5409E+02  0.2343E+02  0.3331E+03  0.2469E+03
      1.730  0.6181E+02  0.3848E+02  0.3479E+03  0.2561E+03
      1.968  0.3354E+02  0.4589E+02  0.3559E+03  0.2670E+03
      2.207  0.2379E+02  0.2919E+02  0.3615E+03  0.2740E+03
      2.445  0.1402E+02  0.3569E+02  0.3649E+03  0.2825E+03
      2.683  0.3759E+02  0.2547E+02  0.3738E+03  0.2885E+03
      2.921  0.3873E+02  0.4570E+02  0.3830E+03  0.2994E+03
      3.159  0.3058E+02  0.4172E+02  0.3903E+03  0.3094E+03
      3.398  0.4399E+02  0.1403E+02  0.4008E+03  0.3127E+03
      3.636  0.5369E+02  0.3161E+02  0.4136E+03  0.3202E+03
      3.874  0.4685E+02  0.5656E+02  0.4248E+03  0.3337E+03
      4.112  0.2862E+02  0.9621E+01  0.4316E+03  0.3360E+03
      4.351  0.1765E+01  0.2889E-05  0.4320E+03  0.3360E+03
      4.589  0.0000E+00  0.0000E+00  0.4320E+03  0.3360E+03
      4.827  0.0000E+00  0.0000E+00  0.4320E+03  0.3360E+03
      5.065  0.0000E+00  0.0000E+00  0.4320E+03  0.3360E+03
      5.304  0.0000E+00  0.0000E+00  0.4320E+03  0.3360E+03
      5.542  0.0000E+00  0.0000E+00  0.4320E+03  0.3360E+03
      5.780  0.0000E+00  0.0000E+00  0.4320E+03  0.3360E+03
      6.018  0.0000E+00  0.6040E-02  0.4320E+03  0.3360E+03
      6.256  0.0000E+00  0.2000E+01  0.4320E+03  0.3365E+03
      6.495  0.0000E+00  0.1384E+02  0.4320E+03  0.3398E+03
      6.733  0.0000E+00  0.2698E+02  0.4320E+03  0.3462E+03
      6.971  0.0000E+00  0.2541E+02  0.4320E+03  0.3523E+03
      7.209  0.1660E-04  0.5859E+02  0.4320E+03  0.3662E+03
      7.448  0.1553E+00  0.7482E+02  0.4320E+03  0.3840E+03
      7.686  0.7691E+00  0.2926E+02  0.4322E+03  0.3910E+03
      7.924  0.1556E+01  0.4142E+02  0.4326E+03  0.4009E+03
      8.162  0.4830E+01  0.7866E+02  0.4337E+03  0.4196E+03
      8.401  0.7267E+01  0.4888E+02  0.4355E+03  0.4313E+03
      8.639  0.1572E+02  0.3520E+01  0.4392E+03  0.4321E+03
      8.877  0.2404E+02  0.1202E+01  0.4449E+03  0.4324E+03
      9.115  0.1988E+02  0.4522E+01  0.4497E+03  0.4335E+03
      9.354  0.1938E+02  0.1094E+02  0.4543E+03  0.4361E+03
      9.592  0.1979E+02  0.2128E+02  0.4590E+03  0.4411E+03
      9.830  0.2448E+02  0.2889E+02  0.4648E+03  0.4480E+03
     10.068  0.2194E+02  0.3016E+02  0.4701E+03  0.4552E+03
     10.306  0.1798E+02  0.2998E+02  0.4744E+03  0.4623E+03
     10.545  0.2478E+02  0.2575E+02  0.4803E+03  0.4685E+03
     10.783  0.1478E+02  0.2581E+02  0.4838E+03  0.4746E+03
     11.021  0.2787E+02  0.2407E+02  0.4904E+03  0.4804E+03
     11.259  0.4558E+02  0.1045E+02  0.5013E+03  0.4829E+03
     11.498  0.4857E+02  0.2597E+02  0.5128E+03  0.4890E+03
     11.736  0.3493E+02  0.3093E+02  0.5212E+03  0.4964E+03
     11.974  0.2037E+02  0.5629E+02  0.5260E+03  0.5098E+03
     12.212  0.2075E+02  0.4429E+02  0.5310E+03  0.5204E+03
     12.451  0.3044E+02  0.2667E+02  0.5382E+03  0.5267E+03
     12.689  0.3200E+02  0.2383E+02  0.5458E+03  0.5324E+03
     12.927  0.1823E+02  0.2739E+02  0.5502E+03  0.5389E+03
     13.165  0.7546E+01  0.3284E+02  0.5520E+03  0.5468E+03
     13.403  0.9334E-01  0.1792E+02  0.5520E+03  0.5510E+03
     13.642  0.0000E+00  0.4081E+01  0.5520E+03  0.5520E+03
     13.880  0.0000E+00  0.7309E-05  0.5520E+03  0.5520E+03
     14.118  0.0000E+00  0.0000E+00  0.5520E+03  0.5520E+03
     14.356  0.0000E+00  0.0000E+00  0.5520E+03  0.5520E+03
     14.595  0.0000E+00  0.0000E+00  0.5520E+03  0.5520E+03
     14.833  0.0000E+00  0.0000E+00  0.5520E+03  0.5520E+03
     15.071  0.0000E+00  0.0000E+00  0.5520E+03  0.5520E+03
     15.309  0.0000E+00  0.0000E+00  0.5520E+03  0.5520E+03
     15.548  0.0000E+00  0.0000E+00  0.5520E+03  0.5520E+03
     15.786  0.0000E+00  0.0000E+00  0.5520E+03  0.5520E+03
     16.024  0.0000E+00  0.0000E+00  0.5520E+03  0.5520E+03
     16.262  0.0000E+00  0.0000E+00  0.5520E+03  0.5520E+03
     16.501  0.0000E+00  0.0000E+00  0.5520E+03  0.5520E+03
     16.739  0.0000E+00  0.0000E+00  0.5520E+03  0.5520E+03
