 vasp.5.4.4.18Apr17-6-g9f103f2a35 (build Oct 25 2017 14:42:18) complex          
  
 executed on             LinuxIFC date 2021.04.16  13:46:56
 running on   48 total cores
 distrk:  each k-point on   24 cores,    2 groups
 distr:  one band on NCORES_PER_BAND=   6 cores,    4 groups


--------------------------------------------------------------------------------------------------------


 INCAR:
 POTCAR:    PAW_PBE Li_sv 10Sep2004               
 POTCAR:    PAW_PBE O 08Apr2002                   
 POTCAR:    PAW_PBE S 06Sep2000                   
 POTCAR:    PAW_PBE Fe_pv 02Aug2007               

 ----------------------------------------------------------------------------- 
|                                                                             |
|           W    W    AA    RRRRR   N    N  II  N    N   GGGG   !!!           |
|           W    W   A  A   R    R  NN   N  II  NN   N  G    G  !!!           |
|           W    W  A    A  R    R  N N  N  II  N N  N  G       !!!           |
|           W WW W  AAAAAA  RRRRR   N  N N  II  N  N N  G  GGG   !            |
|           WW  WW  A    A  R   R   N   NN  II  N   NN  G    G                |
|           W    W  A    A  R    R  N    N  II  N    N   GGGG   !!!           |
|                                                                             |
|      You have enabled k-point parallelism (KPAR>1).                         |
|      This developmental code was originally  written by Paul Kent at ORNL,  |
|      and carefully double checked in Vienna.                                |
|      GW as well as linear response parallelism added by Martijn Marsman     |
|      and Georg Kresse.                                                      |
|      Carefully verify results versus KPAR=1.                                |
|      Report problems to Paul Kent and Vienna.                               |
|                                                                             |
 ----------------------------------------------------------------------------- 

 POTCAR:    PAW_PBE Li_sv 10Sep2004               
  local pseudopotential read in
  atomic valenz-charges read in
  non local Contribution for L=           0  read in
    real space projection operators read in
  non local Contribution for L=           0  read in
    real space projection operators read in
  non local Contribution for L=           1  read in
    real space projection operators read in
    PAW grid and wavefunctions read in
 
   number of l-projection  operators is LMAX  =           3
   number of lm-projection operators is LMMAX =           5
 
 POTCAR:    PAW_PBE O 08Apr2002                   
  local pseudopotential read in
  partial core-charges read in
  partial kinetic energy density read in
  kinetic energy density of atom read in
  atomic valenz-charges read in
  non local Contribution for L=           0  read in
    real space projection operators read in
  non local Contribution for L=           0  read in
    real space projection operators read in
  non local Contribution for L=           1  read in
    real space projection operators read in
  non local Contribution for L=           1  read in
    real space projection operators read in
    PAW grid and wavefunctions read in
 
   number of l-projection  operators is LMAX  =           4
   number of lm-projection operators is LMMAX =           8
 
 POTCAR:    PAW_PBE S 06Sep2000                   
  local pseudopotential read in
  partial core-charges read in
  partial kinetic energy density read in
  atomic valenz-charges read in
  non local Contribution for L=           0  read in
    real space projection operators read in
  non local Contribution for L=           0  read in
    real space projection operators read in
  non local Contribution for L=           1  read in
    real space projection operators read in
  non local Contribution for L=           1  read in
    real space projection operators read in
    PAW grid and wavefunctions read in
 
   number of l-projection  operators is LMAX  =           4
   number of lm-projection operators is LMMAX =           8
 
 POTCAR:    PAW_PBE Fe_pv 02Aug2007               
  local pseudopotential read in
  partial core-charges read in
  partial kinetic energy density read in
  atomic valenz-charges read in
  non local Contribution for L=           1  read in
    real space projection operators read in
  non local Contribution for L=           1  read in
    real space projection operators read in
  non local Contribution for L=           2  read in
    real space projection operators read in
  non local Contribution for L=           2  read in
    real space projection operators read in
  non local Contribution for L=           0  read in
    real space projection operators read in
  non local Contribution for L=           0  read in
    real space projection operators read in
    PAW grid and wavefunctions read in
 
   number of l-projection  operators is LMAX  =           6
   number of lm-projection operators is LMMAX =          18
 

 ----------------------------------------------------------------------------- 
|                                                                             |
|  ADVICE TO THIS USER RUNNING 'VASP/VAMP'   (HEAR YOUR MASTER'S VOICE ...):  |
|                                                                             |
|      You have a (more or less) 'large supercell' and for larger cells       |
|      it might be more efficient to use real space projection opertators     |
|      So try LREAL= Auto  in the INCAR   file.                               |
|      Mind:          For very  accurate calculation you might also keep the  |
|      reciprocal projection scheme          (i.e. LREAL=.FALSE.)             |
|                                                                             |
 ----------------------------------------------------------------------------- 

  PAW_PBE Li_sv 10Sep2004               :
 energy of atom  1       EATOM= -202.7858
 kinetic energy error for atom=    0.0072 (will be added to EATOM!!)
  PAW_PBE O 08Apr2002                   :
 energy of atom  2       EATOM= -432.3788
 kinetic energy error for atom=    0.0129 (will be added to EATOM!!)
  PAW_PBE S 06Sep2000                   :
 energy of atom  3       EATOM= -276.8230
 kinetic energy error for atom=    0.0008 (will be added to EATOM!!)
  PAW_PBE Fe_pv 02Aug2007               :
 energy of atom  4       EATOM=-2457.4239
 kinetic energy error for atom=    0.0041 (will be added to EATOM!!)
 
 
 POSCAR: # Compound: Li48O24S24Fe24. Old comment:
  positions in direct lattice
  No initial velocities read in
 exchange correlation table for  LEXCH =        8
   RHO(1)=    0.500       N(1)  =     2000
   RHO(2)=  100.500       N(2)  =     4000
 


--------------------------------------------------------------------------------------------------------


 ion  position               nearest neighbor table
   1  0.035  0.363  0.356-  51 1.97  49 1.97  73 2.65
   2  0.369  0.363  0.356-  49 1.97  50 1.97  74 2.65
   3  0.702  0.363  0.356-  50 1.97  51 1.97  75 2.65
   4  0.035  0.863  0.356-  54 1.97  52 1.97  76 2.65
   5  0.369  0.863  0.356-  52 1.97  53 1.97  77 2.65
   6  0.702  0.863  0.356-  53 1.97  54 1.97  78 2.65
   7  0.035  0.363  0.856-  57 1.97  55 1.97  79 2.65
   8  0.369  0.363  0.856-  55 1.97  56 1.97  80 2.65
   9  0.702  0.363  0.856-  56 1.97  57 1.97  81 2.65
  10  0.035  0.863  0.856-  60 1.97  58 1.97  82 2.65
  11  0.369  0.863  0.856-  58 1.97  59 1.97  83 2.65
  12  0.702  0.863  0.856-  59 1.97  60 1.97  84 2.65
  13  0.035  0.113  0.144-  63 1.97  61 1.97  85 2.65
  14  0.369  0.113  0.144-  61 1.97  62 1.97  86 2.65
  15  0.702  0.113  0.144-  62 1.97  63 1.97  87 2.65
  16  0.035  0.613  0.144-  66 1.97  64 1.97  88 2.65
  17  0.369  0.613  0.144-  64 1.97  65 1.97  89 2.65
  18  0.702  0.613  0.144-  65 1.97  66 1.97  90 2.65
  19  0.035  0.113  0.644-  69 1.97  67 1.97  91 2.65
  20  0.369  0.113  0.644-  67 1.97  68 1.97  92 2.65
  21  0.702  0.113  0.644-  68 1.97  69 1.97  93 2.65
  22  0.035  0.613  0.644-  72 1.97  70 1.97  94 2.65
  23  0.369  0.613  0.644-  70 1.97  71 1.97  95 2.65
  24  0.702  0.613  0.644-  71 1.97  72 1.97  96 2.65
  25  0.202  0.219  0.272-  61 1.99  49 2.02  85 2.55  86 2.55
  26  0.535  0.219  0.272-  62 1.99  50 2.02  86 2.55  87 2.55
  27  0.869  0.219  0.272-  63 1.99  51 2.02  87 2.55  85 2.55
  28  0.202  0.719  0.272-  64 1.99  52 2.02  88 2.55  89 2.55
  29  0.535  0.719  0.272-  65 1.99  53 2.02  89 2.55  90 2.55
  30  0.869  0.719  0.272-  66 1.99  54 2.02  90 2.55  88 2.55
  31  0.202  0.219  0.772-  67 1.99  55 2.02  91 2.55  92 2.55
  32  0.535  0.219  0.772-  68 1.99  56 2.02  92 2.55  93 2.55
  33  0.869  0.219  0.772-  69 1.99  57 2.02  93 2.55  91 2.55
  34  0.202  0.719  0.772-  70 1.99  58 2.02  94 2.55  95 2.55
  35  0.535  0.719  0.772-  71 1.99  59 2.02  95 2.55  96 2.55
  36  0.869  0.719  0.772-  72 1.99  60 2.02  96 2.55  94 2.55
  37  0.202  0.469  0.228-  49 1.99  64 2.02  73 2.55  74 2.55
  38  0.535  0.469  0.228-  50 1.99  65 2.02  74 2.55  75 2.55
  39  0.869  0.469  0.228-  51 1.99  66 2.02  75 2.55  73 2.55
  40  0.202  0.969  0.228-  52 1.99  61 2.02  76 2.55  77 2.55
  41  0.535  0.969  0.228-  53 1.99  62 2.02  77 2.55  78 2.55
  42  0.869  0.969  0.228-  54 1.99  63 2.02  78 2.55  76 2.55
  43  0.202  0.469  0.728-  55 1.99  70 2.02  79 2.55  80 2.55
  44  0.535  0.469  0.728-  56 1.99  71 2.02  80 2.55  81 2.55
  45  0.869  0.469  0.728-  57 1.99  72 2.02  81 2.55  79 2.55
  46  0.202  0.969  0.728-  58 1.99  67 2.02  82 2.55  83 2.55
  47  0.535  0.969  0.728-  59 1.99  68 2.02  83 2.55  84 2.55
  48  0.869  0.969  0.728-  60 1.99  69 2.02  84 2.55  82 2.55
  49  0.202  0.368  0.374-   2 1.97   1 1.97  37 1.99 100 2.01  25 2.02 115 2.02
  50  0.535  0.368  0.374-   3 1.97   2 1.97  38 1.99 101 2.01  26 2.02 116 2.02
  51  0.869  0.368  0.374-   1 1.97   3 1.97  39 1.99 102 2.01  27 2.02 117 2.02
  52  0.202  0.868  0.374-   5 1.97   4 1.97  40 1.99  97 2.02  28 2.02 118 2.02
  53  0.535  0.868  0.374-   6 1.97   5 1.97  41 1.99  98 2.01  29 2.02 119 2.02
  54  0.869  0.868  0.374-   4 1.97   6 1.97  42 1.99  99 2.01  30 2.02 120 2.02
  55  0.202  0.368  0.874-   8 1.97   7 1.97  43 1.99 106 2.01  31 2.02 109 2.02
  56  0.535  0.368  0.874-   9 1.97   8 1.97  44 1.99 107 2.01  32 2.02 110 2.02
  57  0.869  0.368  0.874-   7 1.97   9 1.97  45 1.99 108 2.01  33 2.02 111 2.02
  58  0.202  0.868  0.874-  11 1.97  10 1.97  46 1.99 103 2.01  34 2.02 112 2.02
  59  0.535  0.868  0.874-  12 1.97  11 1.97  47 1.99 104 2.01  35 2.02 113 2.02
  60  0.869  0.868  0.874-  10 1.97  12 1.97  48 1.99 105 2.01  36 2.02 114 2.02
  61  0.202  0.118  0.126-  14 1.97  13 1.97  25 1.99 109 2.01  40 2.02 103 2.02
  62  0.535  0.118  0.126-  15 1.97  14 1.97  26 1.99 110 2.01  41 2.02 104 2.02
  63  0.869  0.118  0.126-  13 1.97  15 1.97  27 1.99 111 2.01  42 2.02 105 2.02
  64  0.202  0.618  0.126-  17 1.97  16 1.97  28 1.99 112 2.01  37 2.02 106 2.02
  65  0.535  0.618  0.126-  18 1.97  17 1.97  29 1.99 113 2.01  38 2.02 107 2.02
  66  0.869  0.618  0.126-  16 1.97  18 1.97  30 1.99 114 2.01  39 2.02 108 2.02
  67  0.202  0.118  0.626-  20 1.97  19 1.97  31 1.99 115 2.01  97 2.01  46 2.02
  68  0.535  0.118  0.626-  21 1.97  20 1.97  32 1.99 116 2.01  47 2.02  98 2.02
  69  0.869  0.118  0.626-  19 1.97  21 1.97  33 1.99 117 2.01  48 2.02  99 2.02
  70  0.202  0.618  0.626-  23 1.97  22 1.97  34 1.99 118 2.01  43 2.02 100 2.02
  71  0.535  0.618  0.626-  24 1.97  23 1.97  35 1.99 119 2.01  44 2.02 101 2.02
  72  0.869  0.618  0.626-  22 1.97  24 1.97  36 1.99 120 2.01  45 2.02 102 2.02
  73  0.035  0.370  0.120-  37 2.55  39 2.55 111 2.56 109 2.56   1 2.65
  74  0.369  0.370  0.120-  38 2.55  37 2.55 109 2.56 110 2.56   2 2.65
  75  0.702  0.370  0.120-  39 2.55  38 2.55 110 2.56 111 2.56   3 2.65
  76  0.035  0.870  0.120-  40 2.55  42 2.55 114 2.56 112 2.56   4 2.65
  77  0.369  0.870  0.120-  41 2.55  40 2.55 112 2.56 113 2.56   5 2.65
  78  0.702  0.870  0.120-  42 2.55  41 2.55 113 2.56 114 2.56   6 2.65
  79  0.035  0.370  0.620-  43 2.55  45 2.55 117 2.56 115 2.56   7 2.65
  80  0.369  0.370  0.620-  44 2.55  43 2.55 115 2.56 116 2.56   8 2.65
  81  0.702  0.370  0.620-  45 2.55  44 2.55 116 2.56 117 2.56   9 2.65
  82  0.035  0.870  0.620-  46 2.55  48 2.55 120 2.56 118 2.56  10 2.65
  83  0.369  0.870  0.620-  47 2.55  46 2.55 118 2.56 119 2.56  11 2.65
  84  0.702  0.870  0.620-  48 2.55  47 2.55 119 2.56 120 2.56  12 2.65
  85  0.035  0.120  0.380-  25 2.55  27 2.55  99 2.56  97 2.56  13 2.65
  86  0.369  0.120  0.380-  26 2.55  25 2.55  98 2.56  97 2.56  14 2.65
  87  0.702  0.120  0.380-  27 2.55  26 2.55  98 2.56  99 2.56  15 2.65
  88  0.035  0.620  0.380-  28 2.55  30 2.55 102 2.56 100 2.56  16 2.65
  89  0.369  0.620  0.380-  29 2.55  28 2.55 100 2.56 101 2.56  17 2.65
  90  0.702  0.620  0.380-  30 2.55  29 2.55 101 2.56 102 2.56  18 2.65
  91  0.035  0.120  0.880-  31 2.55  33 2.55 105 2.56 103 2.56  19 2.65
  92  0.369  0.120  0.880-  32 2.55  31 2.55 103 2.56 104 2.56  20 2.65
  93  0.702  0.120  0.880-  33 2.55  32 2.55 104 2.56 105 2.56  21 2.65
  94  0.035  0.620  0.880-  34 2.55  36 2.55 108 2.56 106 2.56  22 2.65
  95  0.369  0.620  0.880-  35 2.55  34 2.55 106 2.56 107 2.56  23 2.65
  96  0.702  0.620  0.880-  36 2.55  35 2.55 107 2.56 108 2.56  24 2.65
  97  0.202  0.012  0.481-  67 2.01  52 2.02  86 2.56  85 2.56
  98  0.535  0.012  0.480-  53 2.01  68 2.02  87 2.56  86 2.56
  99  0.869  0.012  0.480-  54 2.01  69 2.02  85 2.56  87 2.56
 100  0.202  0.512  0.480-  49 2.01  70 2.02  89 2.56  88 2.56
 101  0.535  0.512  0.480-  50 2.01  71 2.02  90 2.56  89 2.56
 102  0.869  0.512  0.480-  51 2.01  72 2.02  88 2.56  90 2.56
 103  0.202  0.012  0.980-  58 2.01  61 2.02  92 2.56  91 2.56
 104  0.535  0.012  0.980-  59 2.01  62 2.02  93 2.56  92 2.56
 105  0.869  0.012  0.980-  60 2.01  63 2.02  91 2.56  93 2.56
 106  0.202  0.512  0.980-  55 2.01  64 2.02  95 2.56  94 2.56
 107  0.535  0.512  0.980-  56 2.01  65 2.02  96 2.56  95 2.56
 108  0.869  0.512  0.980-  57 2.01  66 2.02  94 2.56  96 2.56
 109  0.202  0.262  0.020-  61 2.01  55 2.02  74 2.56  73 2.56
 110  0.535  0.262  0.020-  62 2.01  56 2.02  75 2.56  74 2.56
 111  0.869  0.262  0.020-  63 2.01  57 2.02  73 2.56  75 2.56
 112  0.202  0.762  0.020-  64 2.01  58 2.02  77 2.56  76 2.56
 113  0.535  0.762  0.020-  65 2.01  59 2.02  78 2.56  77 2.56
 114  0.869  0.762  0.020-  66 2.01  60 2.02  76 2.56  78 2.56
 115  0.202  0.262  0.520-  67 2.01  49 2.02  80 2.56  79 2.56
 116  0.535  0.262  0.520-  68 2.01  50 2.02  81 2.56  80 2.56
 117  0.869  0.262  0.520-  69 2.01  51 2.02  79 2.56  81 2.56
 118  0.202  0.762  0.520-  70 2.01  52 2.02  83 2.56  82 2.56
 119  0.535  0.762  0.520-  71 2.01  53 2.02  84 2.56  83 2.56
 120  0.869  0.762  0.520-  72 2.01  54 2.02  82 2.56  84 2.56
 

IMPORTANT INFORMATION: All symmetrisations will be switched off!
NOSYMM: (Re-)initialisation of all symmetry stuff for point group C_1.

 
 
 KPOINTS: # No comment                            

Automatic generation of k-mesh.
Space group operators:
 irot       det(A)        alpha          n_x          n_y          n_z        tau_x        tau_y        tau_z
    1     1.000000     0.000000     1.000000     0.000000     0.000000     0.000000     0.000000     0.000000
 
 Subroutine IBZKPT returns following result:
 ===========================================
 
 Found     14 irreducible k-points:
 
 Following reciprocal coordinates:
            Coordinates               Weight
  0.000000  0.000000  0.000000      1.000000
  0.333333  0.000000  0.000000      2.000000
  0.000000  0.333333  0.000000      2.000000
  0.333333  0.333333  0.000000      2.000000
 -0.333333  0.333333  0.000000      2.000000
  0.000000  0.000000  0.333333      2.000000
  0.333333  0.000000  0.333333      2.000000
 -0.333333  0.000000  0.333333      2.000000
  0.000000  0.333333  0.333333      2.000000
  0.333333  0.333333  0.333333      2.000000
 -0.333333  0.333333  0.333333      2.000000
 -0.000000 -0.333333  0.333333      2.000000
  0.333333 -0.333333  0.333333      2.000000
 -0.333333 -0.333333  0.333333      2.000000
 
 Following cartesian coordinates:
            Coordinates               Weight
  0.000000  0.000000  0.000000      1.000000
  0.028403 -0.000139  0.000000      2.000000
  0.000145  0.029713  0.000000      2.000000
  0.028548  0.029574  0.000000      2.000000
 -0.028257  0.029851  0.000000      2.000000
  0.000000  0.000000  0.029774      2.000000
  0.028403 -0.000139  0.029774      2.000000
 -0.028403  0.000139  0.029774      2.000000
  0.000145  0.029713  0.029774      2.000000
  0.028548  0.029574  0.029774      2.000000
 -0.028257  0.029851  0.029774      2.000000
 -0.000145 -0.029713  0.029774      2.000000
  0.028257 -0.029851  0.029774      2.000000
 -0.028548 -0.029574  0.029774      2.000000
 


--------------------------------------------------------------------------------------------------------




 Dimension of arrays:
   k-points           NKPTS =     14   k-points in BZ     NKDIM =     14   number of bands    NBANDS=    552
   number of dos      NEDOS =    301   number of ions     NIONS =    120
   non local maximal  LDIM  =      6   non local SUM 2l+1 LMDIM =     18
   total plane-waves  NPLWV = 903168
   max r-space proj   IRMAX =      1   max aug-charges    IRDMAX= 154614
   dimension x,y,z NGX =    98 NGY =   96 NGZ =   96
   dimension x,y,z NGXF=   196 NGYF=  192 NGZF=  192
   support grid    NGXF=   392 NGYF=  384 NGZF=  384
   ions per type =              48  24  24  24
   NGX,Y,Z   is equivalent  to a cutoff of  13.88, 14.23, 14.26 a.u.
   NGXF,Y,Z  is equivalent  to a cutoff of  27.76, 28.45, 28.51 a.u.

 SYSTEM =  unknown system                          
 POSCAR =  # Compound: Li48O24S24Fe24. Old comment:

 Startparameter for this run:
   NWRITE =      1    write-flag & timer
   PREC   = accura    normal or accurate (medium, high low for compatibility)
   ISTART =      0    job   : 0-new  1-cont  2-samecut
   ICHARG =      1    charge: 1-file 2-atom 10-const
   ISPIN  =      2    spin polarized calculation?
   LNONCOLLINEAR =      F non collinear calculations
   LSORBIT =      F    spin-orbit coupling
   INIWAV =      1    electr: 0-lowe 1-rand  2-diag
   LASPH  =      T    aspherical Exc in radial PAW
   METAGGA=      F    non-selfconsistent MetaGGA calc.

 Electronic Relaxation 1
   ENCUT  =  650.0 eV  47.77 Ry    6.91 a.u.  24.40 23.32 23.27*2*pi/ulx,y,z
   ENINI  =  650.0     initial cutoff
   ENAUG  =  628.9 eV  augmentation charge cutoff
   NELM   =    200;   NELMIN=  8; NELMDL=  0     # of ELM steps 
   EDIFF  = 0.1E-05   stopping-criterion for ELM
   LREAL  =      F    real-space projection
   NLSPLINE    = F    spline interpolate recip. space projectors
   LCOMPAT=      F    compatible to vasp.4.4
   GGA_COMPAT  = T    GGA compatible to vasp.4.4-vasp.4.6
   LMAXPAW     = -100 max onsite density
   LMAXMIX     =    4 max onsite mixed and CHGCAR
   VOSKOWN=      0    Vosko Wilk Nusair interpolation
   ROPT   =    0.00000   0.00000   0.00000   0.00000
 Ionic relaxation
   EDIFFG = 0.1E-04   stopping-criterion for IOM
   NSW    =      0    number of steps for IOM
   NBLOCK =      1;   KBLOCK =      1    inner block; outer block 
   IBRION =     -1    ionic relax: 0-MD 1-quasi-New 2-CG
   NFREE  =      0    steps in history (QN), initial steepest desc. (CG)
   ISIF   =      3    stress and relaxation
   IWAVPR =     10    prediction:  0-non 1-charg 2-wave 3-comb
   ISYM   =      0    0-nonsym 1-usesym 2-fastsym
   LCORR  =      T    Harris-Foulkes like correction to forces

   POTIM  = 0.5000    time-step for ionic-motion
   TEIN   =    0.0    initial temperature
   TEBEG  =    0.0;   TEEND  =   0.0 temperature during run
   SMASS  =  -3.00    Nose mass-parameter (am)
   estimated Nose-frequenzy (Omega)   =  0.10E-29 period in steps =****** mass=  -0.315E-26a.u.
   SCALEE = 1.0000    scale energy and forces
   NPACO  =    256;   APACO  = 16.0  distance and # of slots for P.C.
   PSTRESS=    0.0 pullay stress

  Mass of Ions in am
   POMASS =   7.01 16.00 32.07 55.85
  Ionic Valenz
   ZVAL   =   3.00  6.00  6.00 14.00
  Atomic Wigner-Seitz radii
   RWIGS  =  -1.00 -1.00 -1.00 -1.00
  virtual crystal weights 
   VCA    =   1.00  1.00  1.00  1.00
   NELECT =     768.0000    total number of electrons
   NUPDOWN=      -1.0000    fix difference up-down

 DOS related values:
   EMIN   =  10.00;   EMAX   =-10.00  energy-range for DOS
   EFERMI =   0.00
   ISMEAR =     0;   SIGMA  =   0.05  broadening in eV -4-tet -1-fermi 0-gaus

 Electronic relaxation 2 (details)
   IALGO  =     38    algorithm
   LDIAG  =      T    sub-space diagonalisation (order eigenvalues)
   LSUBROT=      F    optimize rotation matrix (better conditioning)
   TURBO    =      0    0=normal 1=particle mesh
   IRESTART =      0    0=no restart 2=restart with 2 vectors
   NREBOOT  =      0    no. of reboots
   NMIN     =      0    reboot dimension
   EREF     =   0.00    reference energy to select bands
   IMIX   =      4    mixing-type and parameters
     AMIX     =   0.40;   BMIX     =  1.00
     AMIX_MAG =   1.60;   BMIX_MAG =  1.00
     AMIN     =   0.10
     WC   =   100.;   INIMIX=   1;  MIXPRE=   1;  MAXMIX= -45

 Intra band minimization:
   WEIMIN = 0.0000     energy-eigenvalue tresh-hold
   EBREAK =  0.45E-09  absolut break condition
   DEPER  =   0.30     relativ break condition  

   TIME   =   0.40     timestep for ELM

  volume/ion in A,a.u.               =      12.28        82.89
  Fermi-wavevector in a.u.,A,eV,Ry     =   1.317335  2.489402 23.611165  1.735372
  Thomas-Fermi vector in A             =   2.447383
 
 Write flags
   LWAVE        =      F    write WAVECAR
   LDOWNSAMPLE  =      F    k-point downsampling of WAVECAR
   LCHARG       =      T    write CHGCAR
   LVTOT        =      F    write LOCPOT, total local potential
   LVHAR        =      F    write LOCPOT, Hartree potential only
   LELF         =      F    write electronic localiz. function (ELF)
   LORBIT       =      0    0 simple, 1 ext, 2 COOP (PROOUT), +10 PAW based schemes


 Dipole corrections
   LMONO  =      F    monopole corrections only (constant potential shift)
   LDIPOL =      F    correct potential (dipole corrections)
   IDIPOL =      0    1-x, 2-y, 3-z, 4-all directions 
   EPSILON=  1.0000000 bulk dielectric constant

 LDA+U is selected, type is set to LDAUTYPE =  2
   angular momentum for each species LDAUL =    -1   -1   -1    2
   U (eV)           for each species LDAUU =   0.0  0.0  0.0  4.0
   J (eV)           for each species LDAUJ =   0.0  0.0  0.0  0.0
 Exchange correlation treatment:
   GGA     =    PE    GGA type
   LEXCH   =     8    internal setting for exchange type
   VOSKOWN=      0    Vosko Wilk Nusair interpolation
   LHFCALC =     F    Hartree Fock is set to
   LHFONE  =     F    Hartree Fock one center treatment
   AEXX    =    0.0000 exact exchange contribution

 Linear response parameters
   LEPSILON=     F    determine dielectric tensor
   LRPA    =     F    only Hartree local field effects (RPA)
   LNABLA  =     F    use nabla operator in PAW spheres
   LVEL    =     F    velocity operator in full k-point grid
   LINTERFAST=   F  fast interpolation
   KINTER  =     0    interpolate to denser k-point grid
   CSHIFT  =0.1000    complex shift for real part using Kramers Kronig
   OMEGAMAX=  -1.0    maximum frequency
   DEG_THRESHOLD= 0.2000000E-02 threshold for treating states as degnerate
   RTIME   =   -0.100 relaxation time in fs
  (WPLASMAI=    0.000 imaginary part of plasma frequency in eV, 0.658/RTIME)
   DFIELD  = 0.0000000 0.0000000 0.0000000 field for delta impulse in time
 
 Orbital magnetization related:
   ORBITALMAG=     F  switch on orbital magnetization
   LCHIMAG   =     F  perturbation theory with respect to B field
   DQ        =  0.001000  dq finite difference perturbation B field
   LLRAUG    =     F  two centre corrections for induced B field



--------------------------------------------------------------------------------------------------------


 Static calculation
 charge density and potential will be updated during run
 spin polarized calculation
 Variant of blocked Davidson
 Davidson routine will perform the subspace rotation
 perform sub-space diagonalisation
    after iterative eigenvector-optimisation
 modified Broyden-mixing scheme, WC =      100.0
 initial mixing is a Kerker type mixing with AMIX =  0.4000 and BMIX =      1.0000
 Hartree-type preconditioning will be used
 using additional bands          168
 reciprocal scheme for non local part
 use partial core corrections
 calculate Harris-corrections to forces 
   (improved forces if not selfconsistent)
 use gradient corrections 
 use of overlap-Matrix (Vanderbilt PP)
 Gauss-broadening in eV      SIGMA  =   0.05


--------------------------------------------------------------------------------------------------------


  energy-cutoff  :      650.00
  volume of cell :     1474.00
      direct lattice vectors                 reciprocal lattice vectors
    11.735727240 -0.057442860  0.000000000     0.085207850 -0.000416288  0.000000000
     0.054807880 11.218334900  0.000000000     0.000436302  0.089137657  0.000000000
     0.000000000  0.000000000 11.195620100     0.000000000  0.000000000  0.089320644

  length of vectors
    11.735867822 11.218468783 11.195620100     0.085208867  0.089138725  0.089320644


 
 k-points in units of 2pi/SCALE and weight: # No comment                            
   0.00000000  0.00000000  0.00000000       0.037
   0.02840262 -0.00013876  0.00000000       0.074
   0.00014543  0.02971255  0.00000000       0.074
   0.02854805  0.02957379  0.00000000       0.074
  -0.02825718  0.02985132  0.00000000       0.074
   0.00000000  0.00000000  0.02977355       0.074
   0.02840262 -0.00013876  0.02977355       0.074
  -0.02840262  0.00013876  0.02977355       0.074
   0.00014543  0.02971255  0.02977355       0.074
   0.02854805  0.02957379  0.02977355       0.074
  -0.02825718  0.02985132  0.02977355       0.074
  -0.00014543 -0.02971255  0.02977355       0.074
   0.02825718 -0.02985132  0.02977355       0.074
  -0.02854805 -0.02957379  0.02977355       0.074
 
 k-points in reciprocal lattice and weights: # No comment                            
   0.00000000  0.00000000  0.00000000       0.037
   0.33333333  0.00000000  0.00000000       0.074
   0.00000000  0.33333333  0.00000000       0.074
   0.33333333  0.33333333  0.00000000       0.074
  -0.33333333  0.33333333  0.00000000       0.074
   0.00000000  0.00000000  0.33333333       0.074
   0.33333333  0.00000000  0.33333333       0.074
  -0.33333333  0.00000000  0.33333333       0.074
   0.00000000  0.33333333  0.33333333       0.074
   0.33333333  0.33333333  0.33333333       0.074
  -0.33333333  0.33333333  0.33333333       0.074
  -0.00000000 -0.33333333  0.33333333       0.074
   0.33333333 -0.33333333  0.33333333       0.074
  -0.33333333 -0.33333333  0.33333333       0.074
 
 position of ions in fractional coordinates (direct lattice) 
   0.03541706  0.36277547  0.35648149
   0.36875039  0.36277547  0.35648149
   0.70208372  0.36277547  0.35648149
   0.03541706  0.86277547  0.35648149
   0.36875039  0.86277547  0.35648149
   0.70208372  0.86277547  0.35648149
   0.03541706  0.36277547  0.85648149
   0.36875039  0.36277547  0.85648149
   0.70208372  0.36277547  0.85648149
   0.03541706  0.86277547  0.85648149
   0.36875039  0.86277547  0.85648149
   0.70208372  0.86277547  0.85648149
   0.03541706  0.11277547  0.14351851
   0.36875039  0.11277547  0.14351851
   0.70208372  0.11277547  0.14351851
   0.03541706  0.61277547  0.14351851
   0.36875039  0.61277547  0.14351851
   0.70208372  0.61277547  0.14351851
   0.03541706  0.11277547  0.64351851
   0.36875039  0.11277547  0.64351851
   0.70208372  0.11277547  0.64351851
   0.03541706  0.61277547  0.64351851
   0.36875039  0.61277547  0.64351851
   0.70208372  0.61277547  0.64351851
   0.20209458  0.21898060  0.27246215
   0.53542792  0.21898060  0.27246215
   0.86876125  0.21898060  0.27246215
   0.20209458  0.71898060  0.27246215
   0.53542792  0.71898060  0.27246215
   0.86876125  0.71898060  0.27246215
   0.20209458  0.21898060  0.77246215
   0.53542792  0.21898060  0.77246215
   0.86876125  0.21898060  0.77246215
   0.20209458  0.71898060  0.77246215
   0.53542792  0.71898060  0.77246215
   0.86876125  0.71898060  0.77246215
   0.20209458  0.46898060  0.22753785
   0.53542792  0.46898060  0.22753785
   0.86876125  0.46898060  0.22753785
   0.20209458  0.96898060  0.22753785
   0.53542792  0.96898060  0.22753785
   0.86876125  0.96898060  0.22753785
   0.20209458  0.46898060  0.72753785
   0.53542792  0.46898060  0.72753785
   0.86876125  0.46898060  0.72753785
   0.20209458  0.96898060  0.72753785
   0.53542792  0.96898060  0.72753785
   0.86876125  0.96898060  0.72753785
   0.20209064  0.36769237  0.37376509
   0.53542398  0.36769237  0.37376509
   0.86875731  0.36769237  0.37376509
   0.20209064  0.86769237  0.37376509
   0.53542398  0.86769237  0.37376509
   0.86875731  0.86769237  0.37376509
   0.20209064  0.36769237  0.87376509
   0.53542398  0.36769237  0.87376509
   0.86875731  0.36769237  0.87376509
   0.20209064  0.86769237  0.87376509
   0.53542398  0.86769237  0.87376509
   0.86875731  0.86769237  0.87376509
   0.20209064  0.11769237  0.12623491
   0.53542398  0.11769237  0.12623491
   0.86875731  0.11769237  0.12623491
   0.20209064  0.61769237  0.12623491
   0.53542398  0.61769237  0.12623491
   0.86875731  0.61769237  0.12623491
   0.20209064  0.11769237  0.62623491
   0.53542398  0.11769237  0.62623491
   0.86875731  0.11769237  0.62623491
   0.20209064  0.61769237  0.62623491
   0.53542398  0.61769237  0.62623491
   0.86875731  0.61769237  0.62623491
   0.03542751  0.37011947  0.12029448
   0.36876084  0.37011947  0.12029448
   0.70209418  0.37011947  0.12029448
   0.03542751  0.87011947  0.12029448
   0.36876084  0.87011947  0.12029448
   0.70209418  0.87011947  0.12029448
   0.03542751  0.37011947  0.62029448
   0.36876084  0.37011947  0.62029448
   0.70209418  0.37011947  0.62029448
   0.03542751  0.87011947  0.62029448
   0.36876084  0.87011947  0.62029448
   0.70209418  0.87011947  0.62029448
   0.03542751  0.12011947  0.37970552
   0.36876084  0.12011947  0.37970552
   0.70209418  0.12011947  0.37970552
   0.03542751  0.62011947  0.37970552
   0.36876084  0.62011947  0.37970552
   0.70209418  0.62011947  0.37970552
   0.03542751  0.12011947  0.87970552
   0.36876084  0.12011947  0.87970552
   0.70209418  0.12011947  0.87970552
   0.03542751  0.62011947  0.87970552
   0.36876084  0.62011947  0.87970552
   0.70209418  0.62011947  0.87970552
   0.20209387  0.01225309  0.48092783
   0.53542720  0.01225309  0.48003463
   0.86876054  0.01225309  0.48003463
   0.20209387  0.51225309  0.48003463
   0.53542720  0.51225309  0.48003463
   0.86876054  0.51225309  0.48003463
   0.20209387  0.01225309  0.98003463
   0.53542720  0.01225309  0.98003463
   0.86876054  0.01225309  0.98003463
   0.20209387  0.51225309  0.98003463
   0.53542720  0.51225309  0.98003463
   0.86876054  0.51225309  0.98003463
   0.20209387  0.26225309  0.01996537
   0.53542720  0.26225309  0.01996537
   0.86876054  0.26225309  0.01996537
   0.20209387  0.76225309  0.01996537
   0.53542720  0.76225309  0.01996537
   0.86876054  0.76225309  0.01996537
   0.20209387  0.26225309  0.51996537
   0.53542720  0.26225309  0.51996537
   0.86876054  0.26225309  0.51996537
   0.20209387  0.76225309  0.51996537
   0.53542720  0.76225309  0.51996537
   0.86876054  0.76225309  0.51996537
 
 position of ions in cartesian coordinates  (Angst):
   0.43552787  4.06770226  3.99103128
   4.34743695  4.04855464  3.99103128
   8.25934603  4.02940702  3.99103128
   0.46293181  9.67686971  3.99103128
   4.37484089  9.65772209  3.99103128
   8.28674997  9.63857447  3.99103128
   0.43552787  4.06770226  9.58884133
   4.34743695  4.04855464  9.58884133
   8.25934603  4.02940702  9.58884133
   0.46293181  9.67686971  9.58884133
   4.37484089  9.65772209  9.58884133
   8.28674997  9.63857447  9.58884133
   0.42182590  1.26311853  1.60677877
   4.33373498  1.24397091  1.60677877
   8.24564406  1.22482329  1.60677877
   0.44922984  6.87228598  1.60677877
   4.36113892  6.85313836  1.60677877
   8.27304800  6.83399074  1.60677877
   0.42182590  1.26311853  7.20458882
   4.33373498  1.24397091  7.20458882
   8.24564406  1.22482329  7.20458882
   0.44922984  6.87228598  7.20458882
   4.36113892  6.85313836  7.20458882
   8.27304800  6.83399074  7.20458882
   2.38372877  2.44498882  3.05038272
   6.29563785  2.42584120  3.05038272
  10.20754693  2.40669358  3.05038272
   2.41113271  8.05415627  3.05038272
   6.32304179  8.03500865  3.05038272
  10.23495087  8.01586103  3.05038272
   2.38372877  2.44498882  8.64819277
   6.29563785  2.42584120  8.64819277
  10.20754693  2.40669358  8.64819277
   2.41113271  8.05415627  8.64819277
   6.32304179  8.03500865  8.64819277
  10.23495087  8.01586103  8.64819277
   2.39743074  5.24957254  2.54742733
   6.30933982  5.23042492  2.54742733
  10.22124890  5.21127730  2.54742733
   2.42483468 10.85873999  2.54742733
   6.33674376 10.83959237  2.54742733
  10.24865284 10.82044475  2.54742733
   2.39743074  5.24957254  8.14523738
   6.30933982  5.23042492  8.14523738
  10.22124890  5.21127730  8.14523738
   2.42483468 10.85873999  8.14523738
   6.33674376 10.83959237  8.14523738
  10.24865284 10.82044475  8.14523738
   2.39183311  4.11328754  4.18453195
   6.30374219  4.09413992  4.18453195
  10.21565127  4.07499230  4.18453195
   2.41923705  9.72245499  4.18453195
   6.33114613  9.70330737  4.18453195
  10.24305521  9.68415975  4.18453195
   2.39183311  4.11328754  9.78234200
   6.30374219  4.09413992  9.78234200
  10.21565127  4.07499230  9.78234200
   2.41923705  9.72245499  9.78234200
   6.33114613  9.70330737  9.78234200
  10.24305521  9.68415975  9.78234200
   2.37813114  1.30870381  1.41327810
   6.29004022  1.28955619  1.41327810
  10.20194930  1.27040857  1.41327810
   2.40553508  6.91787126  1.41327810
   6.31744416  6.89872364  1.41327810
  10.22935324  6.87957602  1.41327810
   2.37813114  1.30870381  7.01108815
   6.29004022  1.28955619  7.01108815
  10.20194930  1.27040857  7.01108815
   2.40553508  6.91787126  7.01108815
   6.31744416  6.89872364  7.01108815
  10.22935324  6.87957602  7.01108815
   0.43605306  4.15008905  1.34677124
   4.34796214  4.13094143  1.34677124
   8.25987122  4.11179381  1.34677124
   0.46345700  9.75925650  1.34677124
   4.37536608  9.74010888  1.34677124
   8.28727516  9.72096126  1.34677124
   0.43605306  4.15008905  6.94458129
   4.34796214  4.13094143  6.94458129
   8.25987122  4.11179381  6.94458129
   0.46345700  9.75925650  6.94458129
   4.37536608  9.74010888  6.94458129
   8.28727516  9.72096126  6.94458129
   0.42235109  1.34550533  4.25103881
   4.33426017  1.32635771  4.25103881
   8.24616925  1.30721009  4.25103881
   0.44975503  6.95467278  4.25103881
   4.36166411  6.93552516  4.25103881
   8.27357319  6.91637754  4.25103881
   0.42235109  1.34550533  9.84884886
   4.33426017  1.32635771  9.84884886
   8.24616925  1.30721009  9.84884886
   0.44975503  6.95467278  9.84884886
   4.36166411  6.93552516  9.84884886
   8.27357319  6.91637754  9.84884886
   2.37239010  0.12585042  5.38428530
   6.28429918  0.10670280  5.37428530
  10.19620826  0.08755518  5.37428530
   2.39979404  5.73501787  5.37428530
   6.31170312  5.71587025  5.37428530
  10.22361220  5.69672263  5.37428530
   2.37239010  0.12585042 10.97209535
   6.28429918  0.10670280 10.97209535
  10.19620826  0.08755518 10.97209535
   2.39979404  5.73501787 10.97209535
   6.31170312  5.71587025 10.97209535
  10.22361220  5.69672263 10.97209535
   2.38609207  2.93043414  0.22352475
   6.29800115  2.91128652  0.22352475
  10.20991023  2.89213890  0.22352475
   2.41349601  8.53960159  0.22352475
   6.32540509  8.52045397  0.22352475
  10.23731417  8.50130635  0.22352475
   2.38609207  2.93043414  5.82133480
   6.29800115  2.91128652  5.82133480
  10.20991023  2.89213890  5.82133480
   2.41349601  8.53960159  5.82133480
   6.32540509  8.52045397  5.82133480
  10.23731417  8.50130635  5.82133480
 


--------------------------------------------------------------------------------------------------------


 k-point  1 :   0.0000 0.0000 0.0000  plane waves:   55469
 k-point  2 :   0.3333 0.0000 0.0000  plane waves:   55443
 k-point  3 :   0.0000 0.3333 0.0000  plane waves:   55474
 k-point  4 :   0.3333 0.3333 0.0000  plane waves:   55456
 k-point  5 :  -0.3333 0.3333 0.0000  plane waves:   55456
 k-point  6 :   0.0000 0.0000 0.3333  plane waves:   55522
 k-point  7 :   0.3333 0.0000 0.3333  plane waves:   55468
 k-point  8 :  -0.3333 0.0000 0.3333  plane waves:   55468
 k-point  9 :   0.0000 0.3333 0.3333  plane waves:   55433
 k-point 10 :   0.3333 0.3333 0.3333  plane waves:   55444
 k-point 11 :  -0.3333 0.3333 0.3333  plane waves:   55444
 k-point 12 :  -0.0000-0.3333 0.3333  plane waves:   55433
 k-point 13 :   0.3333-0.3333 0.3333  plane waves:   55444
 k-point 14 :  -0.3333-0.3333 0.3333  plane waves:   55444

 maximum and minimum number of plane-waves per node :      9314     9185

 maximum number of plane-waves:     55522
 maximum index in each direction: 
   IXMAX=   24   IYMAX=   23   IZMAX=   23
   IXMIN=  -24   IYMIN=  -23   IZMIN=  -23


 parallel 3D FFT for wavefunctions:
    minimum data exchange during FFTs selected (reduces bandwidth)
 parallel 3D FFT for charge:
    minimum data exchange during FFTs selected (reduces bandwidth)


 total amount of memory used by VASP MPI-rank0   801761. kBytes
=======================================================================

   base      :      30000. kBytes
   nonl-proj :      92491. kBytes
   fftplans  :      50318. kBytes
   grid      :      44712. kBytes
   one-center:        622. kBytes
   wavefun   :     583618. kBytes
 
     INWAV:  cpu time    0.0000: real time    0.0000
 Broyden mixing: mesh for mixing (old mesh)
   NGX = 49   NGY = 47   NGZ = 47
  (NGX  =196   NGY  =192   NGZ  =192)
  gives a total of 108241 points

 initial charge density was supplied:
 number of electron     768.0000015 magnetization      96.0009074
 keeping initial charge density in first step


--------------------------------------------------------------------------------------------------------


 Maximum index for augmentation-charges         7847 (set IRDMAX)


--------------------------------------------------------------------------------------------------------


 First call to EWALD:  gamma=   0.156
 Maximum number of real-space cells 3x 3x 3
 Maximum number of reciprocal cells 3x 3x 3

    FEWALD:  cpu time    0.1136: real time    0.1175


--------------------------------------- Iteration      1(   1)  ---------------------------------------


    POTLOK:  cpu time    0.4883: real time    0.5034
    SETDIJ:  cpu time    1.4060: real time    1.4810
     EDDAV:  cpu time  218.2426: real time  220.6476
       DOS:  cpu time    0.0056: real time    0.0080
    --------------------------------------------
      LOOP:  cpu time  220.1425: real time  222.6399

 eigenvalue-minimisations  : 32400
 total energy-change (2. order) : 0.1004336E+05  (-0.4138225E+05)
 number of electron     768.0000015 magnetization      96.0009074
 augmentation part      768.0000015 magnetization      96.0009074

 Free energy of the ion-electron system (eV)
  ---------------------------------------------------
  alpha Z        PSCENC =      1915.67052055
  Ewald energy   TEWEN  =    -48531.41032051
  -Hartree energ DENC   =    -28984.12612184
  -exchange      EXHF   =         0.00000000
  -V(xc)+E(xc)   XCENC  =      3297.26627840
  PAW double counting   =     81710.32686745   -84426.12035439
  entropy T*S    EENTRO =        -0.01787256
  eigenvalues    EBANDS =      -670.18836846
  atomic energy  EATOM  =     85731.96378919
  Solvation  Ediel_sol  =         0.00000000
  ---------------------------------------------------
  free energy    TOTEN  =     10043.36441783 eV

  energy without entropy =    10043.38229040  energy(sigma->0) =    10043.37335411


--------------------------------------------------------------------------------------------------------




--------------------------------------- Iteration      1(   2)  ---------------------------------------


     EDDAV:  cpu time  209.8765: real time  211.7455
       DOS:  cpu time    0.0067: real time    0.0075
    --------------------------------------------
      LOOP:  cpu time  209.8832: real time  211.7530

 eigenvalue-minimisations  : 30912
 total energy-change (2. order) :-0.9006306E+04  (-0.8363433E+04)
 number of electron     768.0000015 magnetization      96.0009074
 augmentation part      768.0000015 magnetization      96.0009074

 Free energy of the ion-electron system (eV)
  ---------------------------------------------------
  alpha Z        PSCENC =      1915.67052055
  Ewald energy   TEWEN  =    -48531.41032051
  -Hartree energ DENC   =    -28984.12612184
  -exchange      EXHF   =         0.00000000
  -V(xc)+E(xc)   XCENC  =      3297.26627840
  PAW double counting   =     81710.32686745   -84426.12035439
  entropy T*S    EENTRO =        -0.05174867
  eigenvalues    EBANDS =     -9676.46094804
  atomic energy  EATOM  =     85731.96378919
  Solvation  Ediel_sol  =         0.00000000
  ---------------------------------------------------
  free energy    TOTEN  =      1037.05796214 eV

  energy without entropy =     1037.10971081  energy(sigma->0) =     1037.08383648


--------------------------------------------------------------------------------------------------------




--------------------------------------- Iteration      1(   3)  ---------------------------------------


     EDDAV:  cpu time  229.4647: real time  231.9946
       DOS:  cpu time    0.0020: real time    0.0020
    --------------------------------------------
      LOOP:  cpu time  229.4668: real time  231.9966

 eigenvalue-minimisations  : 34712
 total energy-change (2. order) :-0.1436870E+04  (-0.1296282E+04)
 number of electron     768.0000015 magnetization      96.0009074
 augmentation part      768.0000015 magnetization      96.0009074

 Free energy of the ion-electron system (eV)
  ---------------------------------------------------
  alpha Z        PSCENC =      1915.67052055
  Ewald energy   TEWEN  =    -48531.41032051
  -Hartree energ DENC   =    -28984.12612184
  -exchange      EXHF   =         0.00000000
  -V(xc)+E(xc)   XCENC  =      3297.26627840
  PAW double counting   =     81710.32686745   -84426.12035439
  entropy T*S    EENTRO =        -0.00000000
  eigenvalues    EBANDS =    -11113.38235603
  atomic energy  EATOM  =     85731.96378919
  Solvation  Ediel_sol  =         0.00000000
  ---------------------------------------------------
  free energy    TOTEN  =      -399.81169717 eV

  energy without entropy =     -399.81169717  energy(sigma->0) =     -399.81169717


--------------------------------------------------------------------------------------------------------




--------------------------------------- Iteration      1(   4)  ---------------------------------------


     EDDAV:  cpu time  263.6304: real time  266.2425
       DOS:  cpu time    0.0027: real time    0.0027
    --------------------------------------------
      LOOP:  cpu time  263.6331: real time  266.2452

 eigenvalue-minimisations  : 41024
 total energy-change (2. order) :-0.1904654E+03  (-0.1883087E+03)
 number of electron     768.0000015 magnetization      96.0009074
 augmentation part      768.0000015 magnetization      96.0009074

 Free energy of the ion-electron system (eV)
  ---------------------------------------------------
  alpha Z        PSCENC =      1915.67052055
  Ewald energy   TEWEN  =    -48531.41032051
  -Hartree energ DENC   =    -28984.12612184
  -exchange      EXHF   =         0.00000000
  -V(xc)+E(xc)   XCENC  =      3297.26627840
  PAW double counting   =     81710.32686745   -84426.12035439
  entropy T*S    EENTRO =        -0.00000000
  eigenvalues    EBANDS =    -11303.84779119
  atomic energy  EATOM  =     85731.96378919
  Solvation  Ediel_sol  =         0.00000000
  ---------------------------------------------------
  free energy    TOTEN  =      -590.27713233 eV

  energy without entropy =     -590.27713233  energy(sigma->0) =     -590.27713233


--------------------------------------------------------------------------------------------------------




--------------------------------------- Iteration      1(   5)  ---------------------------------------


     EDDAV:  cpu time  332.2798: real time  335.6361
       DOS:  cpu time    0.0024: real time    0.0024
    CHARGE:  cpu time    5.6457: real time    5.7172
    MIXING:  cpu time    0.0186: real time    0.0254
    --------------------------------------------
      LOOP:  cpu time  337.9466: real time  341.3811

 eigenvalue-minimisations  : 54536
 total energy-change (2. order) :-0.2515851E+02  (-0.2492102E+02)
 number of electron     768.0000015 magnetization      96.0005841
 augmentation part      246.8470913 magnetization      62.9090887

 Broyden mixing:
  rms(total) = 0.28626E+00    rms(broyden)= 0.28610E+00
  rms(prec ) = 0.29046E+00
  weight for this iteration     100.00

 Free energy of the ion-electron system (eV)
  ---------------------------------------------------
  alpha Z        PSCENC =      1915.67052055
  Ewald energy   TEWEN  =    -48531.41032051
  -Hartree energ DENC   =    -28984.12612184
  -exchange      EXHF   =         0.00000000
  -V(xc)+E(xc)   XCENC  =      3297.26627840
  PAW double counting   =     81710.32686745   -84426.12035439
  entropy T*S    EENTRO =        -0.00000000
  eigenvalues    EBANDS =    -11329.00630575
  atomic energy  EATOM  =     85731.96378919
  Solvation  Ediel_sol  =         0.00000000
  ---------------------------------------------------
  free energy    TOTEN  =      -615.43564689 eV

  energy without entropy =     -615.43564689  energy(sigma->0) =     -615.43564689


--------------------------------------------------------------------------------------------------------




--------------------------------------- Iteration      1(   6)  ---------------------------------------


    POTLOK:  cpu time    0.4791: real time    0.4857
    SETDIJ:  cpu time    1.4694: real time    1.5038
     EDDAV:  cpu time  270.6825: real time  273.1546
       DOS:  cpu time    0.0020: real time    0.0020
    CHARGE:  cpu time    5.5716: real time    5.5925
    MIXING:  cpu time    0.0321: real time    0.0373
    --------------------------------------------
      LOOP:  cpu time  278.2368: real time  280.7760

 eigenvalue-minimisations  : 42440
 total energy-change (2. order) :-0.9499677E+00  (-0.9759157E+00)
 number of electron     768.0000015 magnetization      96.0004370
 augmentation part      245.7259099 magnetization      63.0616392

 Broyden mixing:
  rms(total) = 0.12423E+00    rms(broyden)= 0.12409E+00
  rms(prec ) = 0.12572E+00
  weight for this iteration     100.00

 eigenvalues of (default mixing * dielectric matrix)
  average eigenvalue GAMMA=   0.6680
  0.6680

 Free energy of the ion-electron system (eV)
  ---------------------------------------------------
  alpha Z        PSCENC =      1915.67052055
  Ewald energy   TEWEN  =    -48531.41032051
  -Hartree energ DENC   =    -28978.01578503
  -exchange      EXHF   =         0.00000000
  -V(xc)+E(xc)   XCENC  =      3296.38517700
  PAW double counting   =     81550.05242882   -84261.93555521
  entropy T*S    EENTRO =        -0.00000000
  eigenvalues    EBANDS =    -11339.09586939
  atomic energy  EATOM  =     85731.96378919
  Solvation  Ediel_sol  =         0.00000000
  ---------------------------------------------------
  free energy    TOTEN  =      -616.38561458 eV

  energy without entropy =     -616.38561458  energy(sigma->0) =     -616.38561458


--------------------------------------------------------------------------------------------------------




--------------------------------------- Iteration      1(   7)  ---------------------------------------


    POTLOK:  cpu time    0.4775: real time    0.4802
    SETDIJ:  cpu time    1.4861: real time    1.4883
     EDDAV:  cpu time  305.3865: real time  308.5260
       DOS:  cpu time    0.0022: real time    0.0022
    CHARGE:  cpu time    5.6278: real time    5.6331
    MIXING:  cpu time    0.0212: real time    0.0256
    --------------------------------------------
      LOOP:  cpu time  313.0013: real time  316.1554

 eigenvalue-minimisations  : 49200
 total energy-change (2. order) :-0.4948612E-01  (-0.4841337E-01)
 number of electron     768.0000015 magnetization      96.0003803
 augmentation part      245.5263595 magnetization      63.0169038

 Broyden mixing:
  rms(total) = 0.84349E-01    rms(broyden)= 0.84294E-01
  rms(prec ) = 0.86034E-01
  weight for this iteration     100.00

 eigenvalues of (default mixing * dielectric matrix)
  average eigenvalue GAMMA=   0.5760
  0.5760  0.5760

 Free energy of the ion-electron system (eV)
  ---------------------------------------------------
  alpha Z        PSCENC =      1915.67052055
  Ewald energy   TEWEN  =    -48531.41032051
  -Hartree energ DENC   =    -28979.97336779
  -exchange      EXHF   =         0.00000000
  -V(xc)+E(xc)   XCENC  =      3296.64026922
  PAW double counting   =     81589.21781971   -84302.03254157
  entropy T*S    EENTRO =        -0.00000000
  eigenvalues    EBANDS =    -11336.51126950
  atomic energy  EATOM  =     85731.96378919
  Solvation  Ediel_sol  =         0.00000000
  ---------------------------------------------------
  free energy    TOTEN  =      -616.43510070 eV

  energy without entropy =     -616.43510070  energy(sigma->0) =     -616.43510070


--------------------------------------------------------------------------------------------------------




--------------------------------------- Iteration      1(   8)  ---------------------------------------


    POTLOK:  cpu time    0.4757: real time    0.4783
    SETDIJ:  cpu time    1.4769: real time    1.4790
     EDDAV:  cpu time  296.3308: real time  298.9728
       DOS:  cpu time    0.0024: real time    0.0024
    CHARGE:  cpu time    5.5917: real time    5.6146
    MIXING:  cpu time    0.0213: real time    0.0260
    --------------------------------------------
      LOOP:  cpu time  303.8988: real time  306.5731

 eigenvalue-minimisations  : 47552
 total energy-change (2. order) :-0.2557876E-03  (-0.1813890E-02)
 number of electron     768.0000015 magnetization      96.0003499
 augmentation part      245.4884523 magnetization      63.0147896

 Broyden mixing:
  rms(total) = 0.73190E-01    rms(broyden)= 0.73185E-01
  rms(prec ) = 0.74766E-01
  weight for this iteration     100.00

 eigenvalues of (default mixing * dielectric matrix)
  average eigenvalue GAMMA=   0.5157
  0.5741  0.5741  0.3988

 Free energy of the ion-electron system (eV)
  ---------------------------------------------------
  alpha Z        PSCENC =      1915.67052055
  Ewald energy   TEWEN  =    -48531.41032051
  -Hartree energ DENC   =    -28980.72850548
  -exchange      EXHF   =         0.00000000
  -V(xc)+E(xc)   XCENC  =      3296.74233583
  PAW double counting   =     81609.58355259   -84322.94143636
  entropy T*S    EENTRO =        -0.00000000
  eigenvalues    EBANDS =    -11335.31529230
  atomic energy  EATOM  =     85731.96378919
  Solvation  Ediel_sol  =         0.00000000
  ---------------------------------------------------
  free energy    TOTEN  =      -616.43535648 eV

  energy without entropy =     -616.43535648  energy(sigma->0) =     -616.43535648


--------------------------------------------------------------------------------------------------------




--------------------------------------- Iteration      1(   9)  ---------------------------------------


    POTLOK:  cpu time    0.4797: real time    0.4827
    SETDIJ:  cpu time    1.4748: real time    1.4754
     EDDAV:  cpu time  305.3976: real time  308.5250
       DOS:  cpu time    0.0024: real time    0.0024
    CHARGE:  cpu time    5.5319: real time    5.6307
    MIXING:  cpu time    0.0226: real time    0.0277
    --------------------------------------------
      LOOP:  cpu time  312.9090: real time  316.1438

 eigenvalue-minimisations  : 49416
 total energy-change (2. order) : 0.7475157E-03  (-0.1049688E-03)
 number of electron     768.0000015 magnetization      96.0001964
 augmentation part      245.4936746 magnetization      63.0120975

 Broyden mixing:
  rms(total) = 0.65849E-01    rms(broyden)= 0.65849E-01
  rms(prec ) = 0.67244E-01
  weight for this iteration     100.00

 eigenvalues of (default mixing * dielectric matrix)
  average eigenvalue GAMMA=   0.9114
  1.2683  1.2683  0.5544  0.5544

 Free energy of the ion-electron system (eV)
  ---------------------------------------------------
  alpha Z        PSCENC =      1915.67052055
  Ewald energy   TEWEN  =    -48531.41032051
  -Hartree energ DENC   =    -28980.95838651
  -exchange      EXHF   =         0.00000000
  -V(xc)+E(xc)   XCENC  =      3296.79548600
  PAW double counting   =     81618.15184978   -84331.76877702
  entropy T*S    EENTRO =        -0.00000000
  eigenvalues    EBANDS =    -11334.87877045
  atomic energy  EATOM  =     85731.96378919
  Solvation  Ediel_sol  =         0.00000000
  ---------------------------------------------------
  free energy    TOTEN  =      -616.43460897 eV

  energy without entropy =     -616.43460897  energy(sigma->0) =     -616.43460897


--------------------------------------------------------------------------------------------------------




--------------------------------------- Iteration      1(  10)  ---------------------------------------


    POTLOK:  cpu time    0.4813: real time    0.4952
    SETDIJ:  cpu time    1.4270: real time    1.4607
     EDDAV:  cpu time  335.0228: real time  338.3466
       DOS:  cpu time    0.0022: real time    0.0022
    CHARGE:  cpu time    5.5231: real time    5.6214
    MIXING:  cpu time    0.0227: real time    0.0293
    --------------------------------------------
      LOOP:  cpu time  342.4790: real time  345.9554

 eigenvalue-minimisations  : 55112
 total energy-change (2. order) : 0.2306971E-02  (-0.1503366E-03)
 number of electron     768.0000015 magnetization      96.0000618
 augmentation part      245.5192449 magnetization      63.0119307

 Broyden mixing:
  rms(total) = 0.31958E-01    rms(broyden)= 0.31957E-01
  rms(prec ) = 0.32396E-01
  weight for this iteration     100.00

 eigenvalues of (default mixing * dielectric matrix)
  average eigenvalue GAMMA=   0.9450
  1.5118  1.5118  0.5992  0.5992  0.5029

 Free energy of the ion-electron system (eV)
  ---------------------------------------------------
  alpha Z        PSCENC =      1915.67052055
  Ewald energy   TEWEN  =    -48531.41032051
  -Hartree energ DENC   =    -28982.73331720
  -exchange      EXHF   =         0.00000000
  -V(xc)+E(xc)   XCENC  =      3297.08325903
  PAW double counting   =     81660.23078943   -84375.12305737
  entropy T*S    EENTRO =        -0.00000000
  eigenvalues    EBANDS =    -11332.11396512
  atomic energy  EATOM  =     85731.96378919
  Solvation  Ediel_sol  =         0.00000000
  ---------------------------------------------------
  free energy    TOTEN  =      -616.43230200 eV

  energy without entropy =     -616.43230200  energy(sigma->0) =     -616.43230200


--------------------------------------------------------------------------------------------------------




--------------------------------------- Iteration      1(  11)  ---------------------------------------


    POTLOK:  cpu time    0.4812: real time    0.4906
    SETDIJ:  cpu time    1.4370: real time    1.4655
     EDDAV:  cpu time  308.9855: real time  311.8699
       DOS:  cpu time    0.0020: real time    0.0020
    CHARGE:  cpu time    5.6661: real time    5.6698
    MIXING:  cpu time    0.0237: real time    0.0279
    --------------------------------------------
      LOOP:  cpu time  316.5956: real time  319.5257

 eigenvalue-minimisations  : 50288
 total energy-change (2. order) : 0.2793191E-03  (-0.2050573E-03)
 number of electron     768.0000015 magnetization      96.0000352
 augmentation part      245.5459454 magnetization      63.0100913

 Broyden mixing:
  rms(total) = 0.89256E-02    rms(broyden)= 0.89210E-02
  rms(prec ) = 0.91265E-02
  weight for this iteration     100.00

 eigenvalues of (default mixing * dielectric matrix)
  average eigenvalue GAMMA=   0.9498
  1.9999  1.1742  0.6930  0.6930  0.6073  0.5311

 Free energy of the ion-electron system (eV)
  ---------------------------------------------------
  alpha Z        PSCENC =      1915.67052055
  Ewald energy   TEWEN  =    -48531.41032051
  -Hartree energ DENC   =    -28984.25312490
  -exchange      EXHF   =         0.00000000
  -V(xc)+E(xc)   XCENC  =      3297.30407369
  PAW double counting   =     81697.16107031   -84413.07657182
  entropy T*S    EENTRO =        -0.00000000
  eigenvalues    EBANDS =    -11329.79145920
  atomic energy  EATOM  =     85731.96378919
  Solvation  Ediel_sol  =         0.00000000
  ---------------------------------------------------
  free energy    TOTEN  =      -616.43202268 eV

  energy without entropy =     -616.43202268  energy(sigma->0) =     -616.43202268


--------------------------------------------------------------------------------------------------------




--------------------------------------- Iteration      1(  12)  ---------------------------------------


    POTLOK:  cpu time    0.4760: real time    0.4784
    SETDIJ:  cpu time    1.4565: real time    1.4761
     EDDAV:  cpu time  284.0273: real time  286.6339
       DOS:  cpu time    0.0021: real time    0.0021
    CHARGE:  cpu time    5.5991: real time    5.6806
    MIXING:  cpu time    0.0348: real time    0.0390
    --------------------------------------------
      LOOP:  cpu time  291.5959: real time  294.3101

 eigenvalue-minimisations  : 45400
 total energy-change (2. order) :-0.4458340E-04  (-0.2665941E-04)
 number of electron     768.0000015 magnetization      96.0000240
 augmentation part      245.5496770 magnetization      63.0104265

 Broyden mixing:
  rms(total) = 0.78557E-02    rms(broyden)= 0.78541E-02
  rms(prec ) = 0.82036E-02
  weight for this iteration     100.00

 eigenvalues of (default mixing * dielectric matrix)
  average eigenvalue GAMMA=   1.0079
  2.2619  1.0445  1.0445  1.0527  0.5472  0.5472  0.5570

 Free energy of the ion-electron system (eV)
  ---------------------------------------------------
  alpha Z        PSCENC =      1915.67052055
  Ewald energy   TEWEN  =    -48531.41032051
  -Hartree energ DENC   =    -28984.36691987
  -exchange      EXHF   =         0.00000000
  -V(xc)+E(xc)   XCENC  =      3297.31986986
  PAW double counting   =     81703.83238093   -84419.81920254
  entropy T*S    EENTRO =        -0.00000000
  eigenvalues    EBANDS =    -11329.62218487
  atomic energy  EATOM  =     85731.96378919
  Solvation  Ediel_sol  =         0.00000000
  ---------------------------------------------------
  free energy    TOTEN  =      -616.43206726 eV

  energy without entropy =     -616.43206726  energy(sigma->0) =     -616.43206726


--------------------------------------------------------------------------------------------------------




--------------------------------------- Iteration      1(  13)  ---------------------------------------


    POTLOK:  cpu time    0.4810: real time    0.4848
    SETDIJ:  cpu time    1.4507: real time    1.4813
     EDDAV:  cpu time  250.3170: real time  252.9060
       DOS:  cpu time    0.0022: real time    0.0022
    CHARGE:  cpu time    5.6820: real time    5.6967
    MIXING:  cpu time    0.0307: real time    0.0348
    --------------------------------------------
      LOOP:  cpu time  257.9635: real time  260.6058

 eigenvalue-minimisations  : 38608
 total energy-change (2. order) : 0.1911697E-04  (-0.1219168E-05)
 number of electron     768.0000015 magnetization      96.0000044
 augmentation part      245.5507493 magnetization      63.0103063

 Broyden mixing:
  rms(total) = 0.58133E-02    rms(broyden)= 0.58116E-02
  rms(prec ) = 0.61253E-02
  weight for this iteration     100.00

 eigenvalues of (default mixing * dielectric matrix)
  average eigenvalue GAMMA=   1.1434
  2.4401  1.8508  1.1710  1.1710  0.7220  0.7220  0.5150  0.5550

 Free energy of the ion-electron system (eV)
  ---------------------------------------------------
  alpha Z        PSCENC =      1915.67052055
  Ewald energy   TEWEN  =    -48531.41032051
  -Hartree energ DENC   =    -28984.26451153
  -exchange      EXHF   =         0.00000000
  -V(xc)+E(xc)   XCENC  =      3297.30346713
  PAW double counting   =     81706.17372539   -84422.09045552
  entropy T*S    EENTRO =        -0.00000000
  eigenvalues    EBANDS =    -11329.77826286
  atomic energy  EATOM  =     85731.96378919
  Solvation  Ediel_sol  =         0.00000000
  ---------------------------------------------------
  free energy    TOTEN  =      -616.43204814 eV

  energy without entropy =     -616.43204814  energy(sigma->0) =     -616.43204814


--------------------------------------------------------------------------------------------------------




--------------------------------------- Iteration      1(  14)  ---------------------------------------


    POTLOK:  cpu time    0.4755: real time    0.4777
    SETDIJ:  cpu time    1.5102: real time    1.5106
     EDDAV:  cpu time  282.0986: real time  285.2469
       DOS:  cpu time    0.0024: real time    0.0025
    CHARGE:  cpu time    5.7578: real time    5.7737
    MIXING:  cpu time    0.0202: real time    0.0316
    --------------------------------------------
      LOOP:  cpu time  289.8647: real time  293.0430

 eigenvalue-minimisations  : 44704
 total energy-change (2. order) : 0.1356835E-04  (-0.4439028E-05)
 number of electron     768.0000015 magnetization      96.0000024
 augmentation part      245.5471045 magnetization      63.0102864

 Broyden mixing:
  rms(total) = 0.11055E-02    rms(broyden)= 0.10966E-02
  rms(prec ) = 0.12118E-02
  weight for this iteration     100.00

 eigenvalues of (default mixing * dielectric matrix)
  average eigenvalue GAMMA=   1.1022
  2.5349  1.4999  1.4999  0.9612  0.8455  0.8455  0.5197  0.6068  0.6068

 Free energy of the ion-electron system (eV)
  ---------------------------------------------------
  alpha Z        PSCENC =      1915.67052055
  Ewald energy   TEWEN  =    -48531.41032051
  -Hartree energ DENC   =    -28984.06494481
  -exchange      EXHF   =         0.00000000
  -V(xc)+E(xc)   XCENC  =      3297.25726915
  PAW double counting   =     81709.87211386   -84425.59079414
  entropy T*S    EENTRO =        -0.00000000
  eigenvalues    EBANDS =    -11330.12966787
  atomic energy  EATOM  =     85731.96378919
  Solvation  Ediel_sol  =         0.00000000
  ---------------------------------------------------
  free energy    TOTEN  =      -616.43203458 eV

  energy without entropy =     -616.43203458  energy(sigma->0) =     -616.43203458


--------------------------------------------------------------------------------------------------------




--------------------------------------- Iteration      1(  15)  ---------------------------------------


    POTLOK:  cpu time    0.4755: real time    0.4772
    SETDIJ:  cpu time    1.4877: real time    1.4882
     EDDAV:  cpu time  249.2057: real time  251.7882
       DOS:  cpu time    0.0022: real time    0.0022
    CHARGE:  cpu time    5.6504: real time    5.6547
    MIXING:  cpu time    0.0259: real time    0.0301
    --------------------------------------------
      LOOP:  cpu time  256.8474: real time  259.4406

 eigenvalue-minimisations  : 38512
 total energy-change (2. order) :-0.3334382E-05  (-0.4532900E-05)
 number of electron     768.0000015 magnetization      96.0000016
 augmentation part      245.5433825 magnetization      63.0104452

 Broyden mixing:
  rms(total) = 0.66689E-03    rms(broyden)= 0.65219E-03
  rms(prec ) = 0.69281E-03
  weight for this iteration     100.00

 eigenvalues of (default mixing * dielectric matrix)
  average eigenvalue GAMMA=   1.0866
  2.7673  1.5328  1.5328  0.9189  0.9189  0.8301  0.6447  0.6447  0.5157  0.5601

 Free energy of the ion-electron system (eV)
  ---------------------------------------------------
  alpha Z        PSCENC =      1915.67052055
  Ewald energy   TEWEN  =    -48531.41032051
  -Hartree energ DENC   =    -28984.15105343
  -exchange      EXHF   =         0.00000000
  -V(xc)+E(xc)   XCENC  =      3297.26430387
  PAW double counting   =     81710.17371369   -84425.92825120
  entropy T*S    EENTRO =        -0.00000000
  eigenvalues    EBANDS =    -11330.01474007
  atomic energy  EATOM  =     85731.96378919
  Solvation  Ediel_sol  =         0.00000000
  ---------------------------------------------------
  free energy    TOTEN  =      -616.43203791 eV

  energy without entropy =     -616.43203791  energy(sigma->0) =     -616.43203791


--------------------------------------------------------------------------------------------------------




--------------------------------------- Iteration      1(  16)  ---------------------------------------


    POTLOK:  cpu time    0.4766: real time    0.4771
    SETDIJ:  cpu time    1.4716: real time    1.4807
     EDDAV:  cpu time  186.2552: real time  188.1799
       DOS:  cpu time    0.0021: real time    0.0021
    --------------------------------------------
      LOOP:  cpu time  188.2055: real time  190.1397

 eigenvalue-minimisations  : 26256
 total energy-change (2. order) :-0.2701854E-06  (-0.2124750E-06)
 number of electron     768.0000015 magnetization      96.0000016
 augmentation part      245.5433825 magnetization      63.0104452

 Free energy of the ion-electron system (eV)
  ---------------------------------------------------
  alpha Z        PSCENC =      1915.67052055
  Ewald energy   TEWEN  =    -48531.41032051
  -Hartree energ DENC   =    -28984.15591077
  -exchange      EXHF   =         0.00000000
  -V(xc)+E(xc)   XCENC  =      3297.26565422
  PAW double counting   =     81710.35254660   -84426.11891157
  entropy T*S    EENTRO =        -0.00000000
  eigenvalues    EBANDS =    -11329.99940590
  atomic energy  EATOM  =     85731.96378919
  Solvation  Ediel_sol  =         0.00000000
  ---------------------------------------------------
  free energy    TOTEN  =      -616.43203818 eV

  energy without entropy =     -616.43203818  energy(sigma->0) =     -616.43203818


--------------------------------------------------------------------------------------------------------




 average (electrostatic) potential at core
  the test charge radii are     0.7079  0.7215  0.9698  0.9500
  (the norm of the test charge is              1.0000)
       1 -59.3903       2 -59.3901       3 -59.3904       4 -59.3860       5 -59.3861
       6 -59.3907       7 -59.3913       8 -59.3914       9 -59.3913      10 -59.3917
      11 -59.3916      12 -59.3910      13 -59.3903      14 -59.3902      15 -59.3906
      16 -59.3907      17 -59.3909      18 -59.3909      19 -59.3970      20 -59.3969
      21 -59.3910      22 -59.3917      23 -59.3918      24 -59.3913      25 -59.5922
      26 -59.5916      27 -59.5921      28 -59.5899      29 -59.5938      30 -59.5929
      31 -59.5981      32 -59.5937      33 -59.5934      34 -59.5938      35 -59.5940
      36 -59.5944      37 -59.5936      38 -59.5932      39 -59.5930      40 -59.5868
      41 -59.5929      42 -59.5933      43 -59.5933      44 -59.5942      45 -59.5937
      46 -59.6015      47 -59.5948      48 -59.5947      49 -70.1770      50 -70.1761
      51 -70.1762      52 -70.1628      53 -70.1767      54 -70.1767      55 -70.1775
      56 -70.1772      57 -70.1772      58 -70.1777      59 -70.1773      60 -70.1773
      61 -70.1763      62 -70.1768      63 -70.1769      64 -70.1768      65 -70.1768
      66 -70.1769      67 -70.1957      68 -70.1770      69 -70.1770      70 -70.1771
      71 -70.1778      72 -70.1778      73 -86.0039      74 -86.0039      75 -86.0039
      76 -86.0031      77 -86.0031      78 -86.0039      79 -86.0049      80 -86.0049
      81 -86.0039      82 -86.0077      83 -86.0077      84 -86.0046      85 -85.9996
      86 -85.9996      87 -86.0031      88 -86.0034      89 -86.0034      90 -86.0040
      91 -86.0051      92 -86.0051      93 -86.0042      94 -86.0043      95 -86.0043
      96 -86.0041      97 -79.0577      98 -79.0577      99 -79.0577     100 -79.0584
     101 -79.0584     102 -79.0583     103 -79.0586     104 -79.0586     105 -79.0587
     106 -79.0586     107 -79.0585     108 -79.0585     109 -79.0585     110 -79.0586
     111 -79.0586     112 -79.0583     113 -79.0583     114 -79.0583     115 -79.0612
     116 -79.0577     117 -79.0577     118 -79.0569     119 -79.0596     120 -79.0596
 
 
 
 E-fermi :   4.4102     XC(G=0): -10.1825     alpha+bet :-12.6708


 spin component 1

 k-point     1 :       0.0000    0.0000    0.0000
  band No.  band energies     occupation 
      1     -51.4825      1.00000
      2     -51.4821      1.00000
      3     -51.4820      1.00000
      4     -51.4820      1.00000
      5     -51.4820      1.00000
      6     -51.4819      1.00000
      7     -51.4670      1.00000
      8     -51.4665      1.00000
      9     -51.4665      1.00000
     10     -51.4665      1.00000
     11     -51.4665      1.00000
     12     -51.4664      1.00000
     13     -51.4663      1.00000
     14     -51.4663      1.00000
     15     -51.4663      1.00000
     16     -51.4660      1.00000
     17     -51.4659      1.00000
     18     -51.4659      1.00000
     19     -51.4509      1.00000
     20     -51.4508      1.00000
     21     -51.4508      1.00000
     22     -51.4507      1.00000
     23     -51.4507      1.00000
     24     -51.4506      1.00000
     25     -50.2018      1.00000
     26     -50.2016      1.00000
     27     -50.2016      1.00000
     28     -50.2016      1.00000
     29     -50.2010      1.00000
     30     -50.2008      1.00000
     31     -50.1989      1.00000
     32     -50.1989      1.00000
     33     -50.1989      1.00000
     34     -50.1988      1.00000
     35     -50.1988      1.00000
     36     -50.1988      1.00000
     37     -50.1984      1.00000
     38     -50.1983      1.00000
     39     -50.1982      1.00000
     40     -50.1981      1.00000
     41     -50.1979      1.00000
     42     -50.1971      1.00000
     43     -50.1961      1.00000
     44     -50.1961      1.00000
     45     -50.1957      1.00000
     46     -50.1955      1.00000
     47     -50.1954      1.00000
     48     -50.1945      1.00000
     49     -50.0077      1.00000
     50     -50.0069      1.00000
     51     -50.0068      1.00000
     52     -50.0068      1.00000
     53     -50.0067      1.00000
     54     -50.0067      1.00000
     55     -49.9913      1.00000
     56     -49.9911      1.00000
     57     -49.9908      1.00000
     58     -49.9908      1.00000
     59     -49.9907      1.00000
     60     -49.9907      1.00000
     61     -49.9907      1.00000
     62     -49.9905      1.00000
     63     -49.9904      1.00000
     64     -49.9904      1.00000
     65     -49.9901      1.00000
     66     -49.9900      1.00000
     67     -49.9745      1.00000
     68     -49.9741      1.00000
     69     -49.9740      1.00000
     70     -49.9740      1.00000
     71     -49.9739      1.00000
     72     -49.9739      1.00000
     73     -40.5270      1.00000
     74     -40.5233      1.00000
     75     -40.5229      1.00000
     76     -40.5219      1.00000
     77     -40.5207      1.00000
     78     -40.5195      1.00000
     79     -40.5179      1.00000
     80     -40.5159      1.00000
     81     -40.5148      1.00000
     82     -40.5142      1.00000
     83     -40.5140      1.00000
     84     -40.5138      1.00000
     85     -40.5135      1.00000
     86     -40.5134      1.00000
     87     -40.5127      1.00000
     88     -40.5122      1.00000
     89     -40.5112      1.00000
     90     -40.5100      1.00000
     91     -40.5070      1.00000
     92     -40.5057      1.00000
     93     -40.5054      1.00000
     94     -40.5044      1.00000
     95     -40.5042      1.00000
     96     -40.5013      1.00000
     97     -40.3112      1.00000
     98     -40.3110      1.00000
     99     -40.3063      1.00000
    100     -40.3060      1.00000
    101     -40.3059      1.00000
    102     -40.3057      1.00000
    103     -40.3056      1.00000
    104     -40.3055      1.00000
    105     -40.3055      1.00000
    106     -40.3055      1.00000
    107     -40.3052      1.00000
    108     -40.3051      1.00000
    109     -40.3050      1.00000
    110     -40.3050      1.00000
    111     -40.3047      1.00000
    112     -40.3046      1.00000
    113     -40.3046      1.00000
    114     -40.3045      1.00000
    115     -40.3044      1.00000
    116     -40.3043      1.00000
    117     -40.3042      1.00000
    118     -40.3034      1.00000
    119     -40.3003      1.00000
    120     -40.2998      1.00000
    121     -13.5436      1.00000
    122     -13.5425      1.00000
    123     -13.5136      1.00000
    124     -13.5120      1.00000
    125     -13.5117      1.00000
    126     -13.4895      1.00000
    127     -13.3836      1.00000
    128     -13.3746      1.00000
    129     -13.3743      1.00000
    130     -13.3742      1.00000
    131     -13.3733      1.00000
    132     -13.3731      1.00000
    133     -13.3728      1.00000
    134     -13.3674      1.00000
    135     -13.3432      1.00000
    136     -13.3396      1.00000
    137     -13.3377      1.00000
    138     -13.3338      1.00000
    139     -13.2385      1.00000
    140     -13.2385      1.00000
    141     -13.2019      1.00000
    142     -13.2018      1.00000
    143     -13.1976      1.00000
    144     -13.1650      1.00000
    145      -7.7340      1.00000
    146      -7.6691      1.00000
    147      -7.5828      1.00000
    148      -7.5812      1.00000
    149      -7.5409      1.00000
    150      -7.5392      1.00000
    151      -7.5299      1.00000
    152      -7.5298      1.00000
    153      -7.4079      1.00000
    154      -7.3738      1.00000
    155      -7.3738      1.00000
    156      -7.3525      1.00000
    157      -7.3517      1.00000
    158      -7.3507      1.00000
    159      -7.3503      1.00000
    160      -7.3432      1.00000
    161      -7.3428      1.00000
    162      -7.3418      1.00000
    163      -7.3407      1.00000
    164      -7.3142      1.00000
    165      -7.3141      1.00000
    166      -7.2334      1.00000
    167      -7.1156      1.00000
    168      -7.1155      1.00000
    169      -1.9253      1.00000
    170      -1.9147      1.00000
    171      -1.8866      1.00000
    172      -1.8451      1.00000
    173      -1.8445      1.00000
    174      -1.8003      1.00000
    175      -1.7992      1.00000
    176      -1.7921      1.00000
    177      -1.7914      1.00000
    178      -1.7913      1.00000
    179      -1.7785      1.00000
    180      -1.7776      1.00000
    181      -1.5326      1.00000
    182      -1.5314      1.00000
    183      -1.5150      1.00000
    184      -1.5141      1.00000
    185      -1.4890      1.00000
    186      -1.4874      1.00000
    187      -1.4873      1.00000
    188      -1.4864      1.00000
    189      -1.4740      1.00000
    190      -1.4730      1.00000
    191      -1.4729      1.00000
    192      -1.4721      1.00000
    193      -1.4341      1.00000
    194      -1.4338      1.00000
    195      -1.3247      1.00000
    196      -1.3243      1.00000
    197      -1.2051      1.00000
    198      -1.1837      1.00000
    199      -1.1574      1.00000
    200      -1.1562      1.00000
    201      -1.1558      1.00000
    202      -1.1547      1.00000
    203      -1.0801      1.00000
    204      -1.0792      1.00000
    205      -1.0588      1.00000
    206      -1.0586      1.00000
    207      -1.0574      1.00000
    208      -1.0570      1.00000
    209      -0.9975      1.00000
    210      -0.9970      1.00000
    211      -0.9803      1.00000
    212      -0.9790      1.00000
    213      -0.9385      1.00000
    214      -0.9381      1.00000
    215      -0.9374      1.00000
    216      -0.9370      1.00000
    217      -0.9184      1.00000
    218      -0.9173      1.00000
    219      -0.9171      1.00000
    220      -0.9167      1.00000
    221      -0.9076      1.00000
    222      -0.9071      1.00000
    223      -0.8219      1.00000
    224      -0.8201      1.00000
    225      -0.8186      1.00000
    226      -0.8168      1.00000
    227      -0.6977      1.00000
    228      -0.6675      1.00000
    229      -0.6394      1.00000
    230      -0.6022      1.00000
    231      -0.5696      1.00000
    232      -0.5061      1.00000
    233      -0.5054      1.00000
    234      -0.5050      1.00000
    235      -0.5043      1.00000
    236      -0.5040      1.00000
    237      -0.4617      1.00000
    238      -0.4609      1.00000
    239      -0.4592      1.00000
    240      -0.4590      1.00000
    241      -0.3995      1.00000
    242      -0.3993      1.00000
    243      -0.3984      1.00000
    244      -0.3980      1.00000
    245      -0.3973      1.00000
    246      -0.3972      1.00000
    247      -0.2860      1.00000
    248      -0.2851      1.00000
    249      -0.2823      1.00000
    250      -0.2818      1.00000
    251      -0.2797      1.00000
    252      -0.2788      1.00000
    253      -0.1798      1.00000
    254      -0.1759      1.00000
    255      -0.1461      1.00000
    256      -0.1459      1.00000
    257      -0.1335      1.00000
    258      -0.1327      1.00000
    259      -0.0906      1.00000
    260      -0.0905      1.00000
    261      -0.0026      1.00000
    262       0.0237      1.00000
    263       0.0857      1.00000
    264       0.0863      1.00000
    265       0.0914      1.00000
    266       0.0925      1.00000
    267       0.1638      1.00000
    268       0.2045      1.00000
    269       0.2053      1.00000
    270       0.2136      1.00000
    271       0.2145      1.00000
    272       0.2268      1.00000
    273       0.2283      1.00000
    274       0.2416      1.00000
    275       0.2633      1.00000
    276       0.2637      1.00000
    277       0.2780      1.00000
    278       0.2783      1.00000
    279       0.2786      1.00000
    280       0.2790      1.00000
    281       0.3595      1.00000
    282       0.3733      1.00000
    283       0.3738      1.00000
    284       0.3739      1.00000
    285       0.3742      1.00000
    286       0.4233      1.00000
    287       0.4241      1.00000
    288       0.4864      1.00000
    289       0.5398      1.00000
    290       0.5646      1.00000
    291       0.5650      1.00000
    292       0.6028      1.00000
    293       0.6029      1.00000
    294       0.6390      1.00000
    295       0.6877      1.00000
    296       0.6883      1.00000
    297       0.7933      1.00000
    298       0.7936      1.00000
    299       0.7973      1.00000
    300       0.7975      1.00000
    301       0.8229      1.00000
    302       0.8229      1.00000
    303       0.8232      1.00000
    304       0.8234      1.00000
    305       0.8428      1.00000
    306       0.8755      1.00000
    307       0.8760      1.00000
    308       0.8792      1.00000
    309       0.8797      1.00000
    310       0.9233      1.00000
    311       0.9236      1.00000
    312       0.9239      1.00000
    313       0.9241      1.00000
    314       0.9568      1.00000
    315       1.1229      1.00000
[...]
   0.105E+00 0.306E+02 -.266E+03   -.114E+00 -.320E+02 0.274E+03   0.858E-02 0.140E+01 -.824E+01   -.100E-03 0.203E-03 -.760E-03
   0.166E+00 0.305E+02 -.266E+03   -.175E+00 -.319E+02 0.274E+03   0.898E-02 0.140E+01 -.824E+01   -.166E-04 0.168E-03 -.690E-03
   0.183E+00 0.305E+02 -.266E+03   -.192E+00 -.319E+02 0.274E+03   0.942E-02 0.140E+01 -.824E+01   0.103E-03 0.392E-04 -.755E-03
   0.150E+00 0.305E+02 -.266E+03   -.159E+00 -.319E+02 0.274E+03   0.832E-02 0.140E+01 -.824E+01   -.635E-04 0.122E-03 -.641E-03
   0.157E+00 0.286E+02 -.267E+03   -.165E+00 -.298E+02 0.275E+03   0.840E-02 0.128E+01 -.831E+01   -.137E-04 -.551E-03 -.783E-03
   0.434E-01 0.305E+02 -.266E+03   -.504E-01 -.319E+02 0.274E+03   0.643E-02 0.140E+01 -.824E+01   0.131E-03 0.227E-03 -.790E-03
   0.289E+00 0.305E+02 -.266E+03   -.300E+00 -.319E+02 0.274E+03   0.113E-01 0.140E+01 -.824E+01   -.111E-03 0.201E-03 -.734E-03
   0.167E+00 0.306E+02 -.266E+03   -.176E+00 -.320E+02 0.274E+03   0.900E-02 0.140E+01 -.824E+01   -.463E-04 0.222E-03 -.624E-03
   0.147E+00 0.305E+02 -.266E+03   -.154E+00 -.320E+02 0.274E+03   0.605E-02 0.140E+01 -.824E+01   0.501E-04 0.124E-03 -.672E-03
   0.186E+00 0.305E+02 -.266E+03   -.197E+00 -.320E+02 0.274E+03   0.117E-01 0.140E+01 -.824E+01   0.993E-07 0.412E-04 -.652E-03
   -.147E+00 -.245E+02 -.149E+03   0.149E+00 0.250E+02 0.150E+03   -.297E-02 -.545E+00 -.115E+01   -.476E-04 -.344E-04 -.394E-03
   -.945E-01 -.245E+02 -.149E+03   0.974E-01 0.250E+02 0.150E+03   -.308E-02 -.545E+00 -.115E+01   0.303E-04 -.505E-04 -.433E-03
   -.121E+00 -.245E+02 -.149E+03   0.124E+00 0.251E+02 0.150E+03   -.302E-02 -.546E+00 -.114E+01   -.428E-05 -.298E-04 -.376E-03
   -.217E+00 -.246E+02 -.149E+03   0.220E+00 0.251E+02 0.151E+03   -.469E-02 -.546E+00 -.115E+01   0.491E-04 0.665E-04 -.349E-03
   -.253E-01 -.246E+02 -.149E+03   0.275E-01 0.251E+02 0.151E+03   -.144E-02 -.546E+00 -.115E+01   -.885E-04 0.548E-04 -.337E-03
   -.121E+00 -.245E+02 -.149E+03   0.124E+00 0.251E+02 0.150E+03   -.297E-02 -.546E+00 -.114E+01   0.134E-04 0.671E-04 -.379E-03
   -.777E-01 -.246E+02 -.149E+03   0.791E-01 0.251E+02 0.150E+03   0.209E-03 -.549E+00 -.114E+01   -.121E-03 0.924E-04 -.325E-03
   -.165E+00 -.246E+02 -.149E+03   0.169E+00 0.251E+02 0.150E+03   -.624E-02 -.549E+00 -.114E+01   0.113E-03 0.578E-04 -.329E-03
   -.121E+00 -.245E+02 -.149E+03   0.124E+00 0.251E+02 0.150E+03   -.303E-02 -.545E+00 -.114E+01   0.617E-05 -.493E-04 -.440E-03
   0.349E+00 -.241E+02 -.149E+03   -.353E+00 0.247E+02 0.150E+03   0.688E-02 -.534E+00 -.114E+01   0.843E-04 0.289E-04 -.397E-03
   -.587E+00 -.241E+02 -.149E+03   0.596E+00 0.247E+02 0.150E+03   -.128E-01 -.534E+00 -.114E+01   -.864E-04 0.338E-04 -.421E-03
   -.121E+00 -.245E+02 -.149E+03   0.124E+00 0.250E+02 0.150E+03   -.300E-02 -.547E+00 -.114E+01   0.799E-05 0.316E-04 -.390E-03
   -.830E+00 -.241E+02 0.149E+03   0.842E+00 0.246E+02 -.151E+03   -.929E-02 -.537E+00 0.115E+01   0.948E-04 -.221E-03 0.347E-03
   0.593E+00 -.241E+02 0.149E+03   -.599E+00 0.246E+02 -.151E+03   0.330E-02 -.537E+00 0.115E+01   -.852E-04 -.162E-03 0.320E-03
   -.121E+00 -.245E+02 0.149E+03   0.124E+00 0.251E+02 -.150E+03   -.301E-02 -.546E+00 0.114E+01   -.396E-04 0.484E-04 0.432E-03
   -.147E+00 -.246E+02 0.149E+03   0.151E+00 0.251E+02 -.150E+03   -.507E-02 -.548E+00 0.115E+01   0.413E-04 0.116E-03 0.368E-03
   -.949E-01 -.246E+02 0.149E+03   0.970E-01 0.251E+02 -.150E+03   -.968E-03 -.548E+00 0.115E+01   -.690E-04 0.540E-04 0.408E-03
   -.121E+00 -.245E+02 0.149E+03   0.124E+00 0.251E+02 -.150E+03   -.306E-02 -.545E+00 0.114E+01   0.126E-04 -.228E-04 0.382E-03
   -.500E-01 -.246E+02 0.149E+03   0.521E-01 0.251E+02 -.150E+03   -.119E-02 -.546E+00 0.114E+01   -.591E-04 -.167E-04 0.411E-03
   -.192E+00 -.246E+02 0.149E+03   0.195E+00 0.251E+02 -.150E+03   -.488E-02 -.546E+00 0.114E+01   0.126E-04 0.368E-04 0.415E-03
   -.121E+00 -.245E+02 0.149E+03   0.124E+00 0.251E+02 -.150E+03   -.298E-02 -.546E+00 0.114E+01   0.384E-04 0.358E-04 0.403E-03
   -.105E+00 -.245E+02 0.149E+03   0.108E+00 0.250E+02 -.150E+03   -.306E-02 -.545E+00 0.114E+01   0.134E-04 -.195E-05 0.392E-03
   -.136E+00 -.245E+02 0.149E+03   0.139E+00 0.250E+02 -.150E+03   -.301E-02 -.545E+00 0.114E+01   -.274E-04 -.863E-06 0.383E-03
   -.121E+00 -.245E+02 0.149E+03   0.124E+00 0.251E+02 -.150E+03   -.297E-02 -.546E+00 0.114E+01   0.113E-04 0.173E-04 0.362E-03
   -.626E-01 -.128E+02 0.852E+02   0.680E-01 0.140E+02 -.864E+02   -.579E-02 -.125E+01 0.109E+01   -.376E-04 -.114E-03 0.133E-02
   -.790E-01 -.159E+02 0.826E+02   0.814E-01 0.171E+02 -.838E+02   -.293E-02 -.115E+01 0.122E+01   0.115E-03 0.582E-04 0.132E-03
   -.768E-01 -.159E+02 0.826E+02   0.848E-01 0.171E+02 -.838E+02   -.796E-02 -.115E+01 0.122E+01   -.981E-04 0.127E-03 0.194E-03
   -.778E-01 -.159E+02 0.824E+02   0.831E-01 0.171E+02 -.836E+02   -.524E-02 -.115E+01 0.122E+01   -.612E-04 0.172E-03 -.137E-04
   -.785E-01 -.160E+02 0.823E+02   0.829E-01 0.171E+02 -.835E+02   -.486E-02 -.114E+01 0.122E+01   0.228E-03 -.234E-04 0.146E-03
   -.773E-01 -.160E+02 0.823E+02   0.832E-01 0.171E+02 -.835E+02   -.597E-02 -.114E+01 0.122E+01   -.218E-03 -.545E-04 0.200E-03
   -.779E-01 -.159E+02 0.815E+02   0.831E-01 0.171E+02 -.827E+02   -.523E-02 -.114E+01 0.121E+01   -.602E-04 0.163E-03 0.125E-03
   -.770E-01 -.160E+02 0.819E+02   0.835E-01 0.171E+02 -.831E+02   -.677E-02 -.114E+01 0.122E+01   0.146E-03 0.240E-03 0.727E-04
   -.789E-01 -.160E+02 0.819E+02   0.826E-01 0.171E+02 -.831E+02   -.410E-02 -.114E+01 0.122E+01   -.708E-04 0.260E-03 0.920E-04
   -.779E-01 -.159E+02 0.820E+02   0.831E-01 0.171E+02 -.832E+02   -.524E-02 -.114E+01 0.122E+01   -.979E-05 0.963E-04 0.224E-04
   -.778E-01 -.159E+02 0.821E+02   0.832E-01 0.171E+02 -.833E+02   -.562E-02 -.114E+01 0.122E+01   0.626E-04 -.305E-05 0.847E-04
   -.780E-01 -.159E+02 0.821E+02   0.830E-01 0.171E+02 -.833E+02   -.525E-02 -.114E+01 0.122E+01   -.531E-04 0.263E-04 0.286E-04
   -.776E-01 -.159E+02 -.825E+02   0.828E-01 0.170E+02 0.838E+02   -.525E-02 -.114E+01 -.122E+01   0.178E-04 -.354E-04 -.277E-05
   -.543E-01 -.159E+02 -.823E+02   0.607E-01 0.171E+02 0.835E+02   -.639E-02 -.114E+01 -.122E+01   0.590E-04 0.336E-04 -.214E-04
   -.101E+00 -.159E+02 -.823E+02   0.105E+00 0.171E+02 0.835E+02   -.445E-02 -.114E+01 -.122E+01   -.897E-04 -.517E-04 -.358E-04
   -.782E-01 -.160E+02 -.825E+02   0.834E-01 0.172E+02 0.838E+02   -.523E-02 -.114E+01 -.122E+01   -.373E-04 0.115E-03 -.856E-04
   -.580E-01 -.160E+02 -.823E+02   0.609E-01 0.171E+02 0.835E+02   -.355E-02 -.114E+01 -.122E+01   0.149E-03 0.730E-04 -.120E-03
   -.980E-01 -.160E+02 -.823E+02   0.105E+00 0.171E+02 0.835E+02   -.730E-02 -.114E+01 -.122E+01   -.106E-03 0.977E-04 -.670E-04
   -.804E-01 -.165E+02 -.811E+02   0.858E-01 0.177E+02 0.823E+02   -.538E-02 -.118E+01 -.118E+01   -.679E-04 0.820E-05 0.382E-03
   -.131E+00 -.160E+02 -.820E+02   0.131E+00 0.171E+02 0.832E+02   -.204E-02 -.114E+01 -.121E+01   0.289E-03 0.173E-04 0.477E-04
   -.257E-01 -.160E+02 -.820E+02   0.353E-01 0.171E+02 0.832E+02   -.879E-02 -.114E+01 -.121E+01   -.286E-03 0.152E-04 0.875E-04
   -.750E-01 -.154E+02 -.811E+02   0.803E-01 0.165E+02 0.823E+02   -.525E-02 -.115E+01 -.118E+01   -.103E-03 -.193E-03 0.359E-03
   -.117E+00 -.159E+02 -.820E+02   0.131E+00 0.171E+02 0.832E+02   -.128E-01 -.114E+01 -.121E+01   0.766E-05 0.264E-03 0.882E-04
   -.386E-01 -.159E+02 -.820E+02   0.350E-01 0.171E+02 0.832E+02   0.193E-02 -.114E+01 -.121E+01   0.233E-04 0.265E-03 0.125E-03
 -----------------------------------------------------------------------------------------------
   -.797E-01 -.159E+01 0.139E+00   0.568E-14 -.252E-12 -.625E-12   0.795E-01 0.158E+01 -.142E+00   -.314E-03 0.423E-02 0.265E-02
 
 
 POSITION                                       TOTAL-FORCE (eV/Angst)
 -----------------------------------------------------------------------------------
      0.43553      4.06770      3.99103        -0.000298     -0.000971     -0.000069
      4.34744      4.04855      3.99103         0.002434     -0.000976     -0.000047
      8.25935      4.02941      3.99103        -0.000254     -0.000183     -0.000028
      0.46293      9.67687      3.99103         0.005519      0.002815      0.000422
      4.37484      9.65772      3.99103        -0.003359      0.002864      0.000436
      8.28675      9.63857      3.99103        -0.000253      0.000137     -0.000153
      0.43553      4.06770      9.58884         0.000045      0.000160      0.000075
      4.34744      4.04855      9.58884         0.002090      0.000154      0.000085
      8.25935      4.02941      9.58884        -0.000246     -0.000017     -0.000133
      0.46293      9.67687      9.58884         0.000023     -0.000213      0.000745
      4.37484      9.65772      9.58884         0.002112     -0.000220      0.000764
      8.28675      9.63857      9.58884        -0.000249     -0.000056      0.000030
      0.42183      1.26312      1.60678         0.000408     -0.000336      0.001105
      4.33373      1.24397      1.60678         0.001737     -0.000340      0.001086
      8.24564      1.22482      1.60678        -0.000261     -0.000035      0.000293
      0.44923      6.87229      1.60678         0.000150      0.000107      0.000261
      4.36114      6.85314      1.60678         0.001985      0.000094      0.000248
      8.27305      6.83399      1.60678        -0.000246     -0.000021      0.000081
      0.42183      1.26312      7.20459        -0.007217      0.002349      0.001795
      4.33373      1.24397      7.20459         0.009383      0.002270      0.001780
      8.24564      1.22482      7.20459        -0.000246      0.000102     -0.000057
      0.44923      6.87229      7.20459         0.000505     -0.000635      0.000054
      4.36114      6.85314      7.20459         0.001625     -0.000638      0.000041
      8.27305      6.83399      7.20459        -0.000246     -0.000177      0.000129
      2.38373      2.44499      3.05038        -0.000156     -0.001328      0.000868
      6.29564      2.42584      3.05038        -0.000838     -0.000248      0.000929
     10.20755      2.40669      3.05038         0.000432     -0.000250      0.000915
      2.41113      8.05416      3.05038        -0.000144      0.002303      0.001638
      6.32304      8.03501      3.05038        -0.000390      0.000169     -0.000063
     10.23495      8.01586      3.05038        -0.000003      0.000133     -0.000061
      2.38373      2.44499      8.64819        -0.000141      0.002196      0.003030
      6.29564      2.42584      8.64819         0.000112      0.000135     -0.000143
     10.20755      2.40669      8.64819        -0.000509      0.000143     -0.000125
      2.41113      8.05416      8.64819        -0.000152     -0.000474      0.000296
      6.32304      8.03501      8.64819         0.000308     -0.000281      0.000573
     10.23495      8.01586      8.64819        -0.000718     -0.000269      0.000583
      2.39743      5.24957      2.54743        -0.000151      0.000189      0.000107
      6.30934      5.23042      2.54743        -0.000283      0.000059      0.000295
     10.22125      5.21128      2.54743        -0.000112      0.000058      0.000299
      2.42483     10.85874      2.54743        -0.000140      0.000643      0.011460
      6.33674     10.83959      2.54743        -0.000634      0.000381      0.000427
     10.24865     10.82044      2.54743         0.000241      0.000385      0.000446
      2.39743      5.24957      8.14524        -0.000150      0.000379      0.000122
      6.30934      5.23042      8.14524         0.000060      0.000024      0.000267
     10.22125      5.21128      8.14524        -0.000458      0.000004      0.000245
      2.42483     10.85874      8.14524        -0.000172     -0.004628      0.012232
      6.33674     10.83959      8.14524         0.000388      0.000563      0.000339
     10.24865     10.82044      8.14524        -0.000790      0.000559      0.000326
      2.39183      4.11329      4.18453         0.000003      0.000091      0.001377
      6.30374      4.09414      4.18453         0.000771      0.001469      0.000453
     10.21565      4.07499      4.18453        -0.000998      0.001420      0.000436
      2.41924      9.72245      4.18453         0.000099      0.018630      0.029077
      6.33115      9.70331      4.18453         0.000463     -0.000987      0.001391
     10.24306      9.68416      4.18453        -0.000720     -0.001024      0.001358
      2.39183      4.11329      9.78234         0.000007     -0.000603     -0.000534
      6.30374      4.09414      9.78234        -0.000204     -0.000198     -0.000029
     10.21565      4.07499      9.78234        -0.000044     -0.000200     -0.000086
      2.41924      9.72245      9.78234         0.000011      0.000484     -0.001664
      6.33115      9.70331      9.78234        -0.000166      0.000045     -0.000887
     10.24306      9.68416      9.78234        -0.000077      0.000040     -0.000962
      2.37813      1.30870      1.41328         0.000004      0.000716     -0.002265
      6.29004      1.28956      1.41328        -0.000013      0.000132     -0.001206
     10.20195      1.27041      1.41328        -0.000222      0.000097     -0.001167
      2.40554      6.91787      1.41328         0.000008     -0.000446     -0.000598
      6.31744      6.89872      1.41328         0.000101     -0.000174     -0.000325
     10.22935      6.87958      1.41328        -0.000350     -0.000208     -0.000306
      2.37813      1.30870      7.01109         0.000086      0.015668      0.041934
      6.29004      1.28956      7.01109        -0.000509     -0.000642      0.001283
     10.20195      1.27041      7.01109         0.000260     -0.000636      0.001367
      2.40554      6.91787      7.01109         0.000010     -0.000243      0.000976
      6.31744      6.89872      7.01109        -0.000810      0.001088      0.000285
     10.22935      6.87958      7.01109         0.000576      0.001109      0.000365
      0.43605      4.15009      1.34677        -0.000141      0.000023     -0.000530
      4.34796      4.13094      1.34677        -0.000199      0.000009     -0.000530
      8.25987      4.11179      1.34677        -0.000156     -0.000023     -0.000297
      0.46346      9.75926      1.34677        -0.001015     -0.000326     -0.001709
      4.37537      9.74011      1.34677         0.000667     -0.000332     -0.001714
      8.28728      9.72096      1.34677        -0.000158     -0.000081     -0.000240
      0.43605      4.15009      6.94458         0.001545     -0.001532      0.000837
      4.34796      4.13094      6.94458        -0.001905     -0.001511      0.000830
      8.25987      4.11179      6.94458        -0.000151      0.000341      0.000416
      0.46346      9.75926      6.94458         0.002793      0.003324      0.002660
      4.37537      9.74011      6.94458        -0.003099      0.003353      0.002662
      8.28728      9.72096      6.94458        -0.000159     -0.000475      0.000279
      0.42235      1.34551      4.25104         0.002858     -0.000896      0.006836
      4.33426      1.32636      4.25104        -0.003209     -0.000878      0.006834
      8.24617      1.30721      4.25104        -0.000162     -0.000264      0.000234
      0.44976      6.95467      4.25104        -0.001359     -0.001209      0.000697
      4.36166      6.93553      4.25104         0.000994     -0.001236      0.000706
      8.27357      6.91638      4.25104        -0.000148      0.000241      0.000402
      0.42235      1.34551      9.84885         0.000845     -0.000125     -0.001818
      4.33426      1.32636      9.84885        -0.001188     -0.000123     -0.001808
      8.24617      1.30721      9.84885        -0.000157     -0.000085     -0.000051
      0.44976      6.95467      9.84885        -0.000189      0.000056     -0.000482
      4.36166      6.93553      9.84885        -0.000144      0.000059     -0.000481
      8.27357      6.91638      9.84885        -0.000163     -0.000024     -0.000172
      2.37239      0.12585      5.38429        -0.000344     -0.055193     -0.095558
      6.28430      0.10670      5.37429        -0.000381      0.001462     -0.002108
     10.19621      0.08756      5.37429        -0.000136      0.001448     -0.002123
      2.39979      5.73502      5.37429        -0.000069      0.000706     -0.000457
      6.31170      5.71587      5.37429        -0.000231     -0.000484     -0.001249
     10.22361      5.69672      5.37429        -0.000303     -0.000504     -0.001275
      2.37239      0.12585     10.97210        -0.000075      0.000006      0.001451
      6.28430      0.10670     10.97210        -0.000054     -0.000302      0.000690
     10.19621      0.08756     10.97210        -0.000479     -0.000308      0.000715
      2.39979      5.73502     10.97210        -0.000073      0.000242      0.000460
      6.31170      5.71587     10.97210        -0.000210      0.000114      0.000303
     10.22361      5.69672     10.97210        -0.000321      0.000098      0.000324
      2.38609      2.93043      0.22352        -0.000074     -0.000171      0.000800
      6.29800      2.91129      0.22352         0.000030      0.000205      0.000393
     10.20991      2.89214      0.22352        -0.000557      0.000190      0.000395
      2.41350      8.53960      0.22352        -0.000073      0.000070      0.000795
      6.32541      8.52045      0.22352        -0.000572      0.000194      0.000382
     10.23731      8.50131      0.22352         0.000044      0.000168      0.000404
      2.38609      2.93043      5.82133        -0.000017      0.012146     -0.011575
      6.29800      2.91129      5.82133        -0.001120     -0.000903     -0.002231
     10.20991      2.89214      5.82133         0.000583     -0.000922     -0.002261
      2.41350      8.53960      5.82133        -0.000065      0.001686     -0.011579
      6.32541      8.52045      5.82133         0.001106     -0.000474     -0.002224
     10.23731      8.50131      5.82133        -0.001637     -0.000466     -0.002258
 -----------------------------------------------------------------------------------
    total drift:                               -0.000571      0.002045      0.000033


--------------------------------------------------------------------------------------------------------



  FREE ENERGIE OF THE ION-ELECTRON SYSTEM (eV)
  ---------------------------------------------------
  free  energy   TOTEN  =      -616.43203818 eV

  energy  without entropy=     -616.43203818  energy(sigma->0) =     -616.43203818
 


--------------------------------------------------------------------------------------------------------


    POTLOK:  cpu time    1.9728: real time    1.9776


--------------------------------------------------------------------------------------------------------


     LOOP+:  cpu time 4785.0239: real time 4832.3411
    4ORBIT:  cpu time    0.0000: real time    0.0000

 total amount of memory used by VASP MPI-rank0   801761. kBytes
=======================================================================

   base      :      30000. kBytes
   nonl-proj :      92491. kBytes
   fftplans  :      50318. kBytes
   grid      :      44712. kBytes
   one-center:        622. kBytes
   wavefun   :     583618. kBytes
 
  
  
 General timing and accounting informations for this job:
 ========================================================
  
                  Total CPU time used (sec):     4882.648
                            User time (sec):     4826.288
                          System time (sec):       56.360
                         Elapsed time (sec):     4931.578
  
                   Maximum memory used (kb):      975328.
                   Average memory used (kb):           0.
  
                          Minor page faults:       603115
                          Major page faults:           35
                 Voluntary context switches:        54030
