  224  224    1    2
  0.1357572E+02  0.1537960E-08  0.1537962E-08  0.1395899E-08  0.5000000E-15
  1.000000000000000E-004
  CAR 
 unknown system                          
   1664      8   1208
 
  0.0000000E+00  0.0000000E+00  0.0000000E+00  0.1250000E+00
    1      -51.142956    -46.392175   1.000000   1.000000
    2      -51.142853    -46.391955   1.000000   1.000000
    3      -51.142428    -46.391501   1.000000   1.000000
    4      -51.142024    -46.391017   1.000000   1.000000
    5      -51.141838    -46.390961   1.000000   1.000000
    6      -51.141667    -46.390886   1.000000   1.000000
    7      -51.141459    -46.390681   1.000000   1.000000
    8      -51.141411    -46.390615   1.000000   1.000000
    9      -51.141297    -46.390459   1.000000   1.000000
   10      -51.141241    -46.390445   1.000000   1.000000
   11      -51.141175    -46.390360   1.000000   1.000000
   12      -51.141159    -46.390338   1.000000   1.000000
   13      -51.141126    -46.390262   1.000000   1.000000
   14      -51.141004    -46.390093   1.000000   1.000000
   15      -51.140933    -46.390067   1.000000   1.000000
   16      -51.140906    -46.390027   1.000000   1.000000
   17      -51.140904    -46.389951   1.000000   1.000000
   18      -51.140853    -46.389934   1.000000   1.000000
   19      -51.140850    -46.389858   1.000000   1.000000
   20      -51.140814    -46.389762   1.000000   1.000000
   21      -51.140730    -46.389733   1.000000   1.000000
   22      -51.140689    -46.389640   1.000000   1.000000
   23      -51.140602    -46.389613   1.000000   1.000000
   24      -51.140554    -46.389568   1.000000   1.000000
   25      -51.140543    -46.389557   1.000000   1.000000
   26      -51.140525    -46.389531   1.000000   1.000000
   27      -51.140518    -46.389520   1.000000   1.000000
   28      -51.140501    -46.389478   1.000000   1.000000
   29      -51.140468    -46.389416   1.000000   1.000000
   30      -51.140443    -46.389360   1.000000   1.000000
   31      -51.140389    -46.389297   1.000000   1.000000
   32      -51.140363    -46.389253   1.000000   1.000000
   33      -51.140346    -46.389223   1.000000   1.000000
   34      -51.140251    -46.389177   1.000000   1.000000
   35      -51.140231    -46.389122   1.000000   1.000000
   36      -51.140215    -46.389036   1.000000   1.000000
   37      -51.140201    -46.388985   1.000000   1.000000
   38      -51.140169    -46.388916   1.000000   1.000000
   39      -51.140161    -46.388909   1.000000   1.000000
   40      -51.140144    -46.388879   1.000000   1.000000
   41      -51.140110    -46.388861   1.000000   1.000000
   42      -51.140030    -46.388844   1.000000   1.000000
   43      -51.139996    -46.388779   1.000000   1.000000
   44      -51.139969    -46.388747   1.000000   1.000000
   45      -51.139896    -46.388709   1.000000   1.000000
   46      -51.139866    -46.388646   1.000000   1.000000
   47      -51.139833    -46.388568   1.000000   1.000000
   48      -51.139816    -46.388534   1.000000   1.000000
   49      -51.139779    -46.388493   1.000000   1.000000
   50      -51.139749    -46.388424   1.000000   1.000000
   51      -51.139713    -46.388394   1.000000   1.000000
   52      -51.139674    -46.388359   1.000000   1.000000
   53      -51.139626    -46.388289   1.000000   1.000000
   54      -51.139589    -46.388209   1.000000   1.000000
   55      -51.139543    -46.388150   1.000000   1.000000
   56      -51.139460    -46.388084   1.000000   1.000000
   57      -51.139339    -46.387999   1.000000   1.000000
   58      -51.139265    -46.387872   1.000000   1.000000
   59      -51.139099    -46.387705   1.000000   1.000000
   60      -51.138582    -46.387365   1.000000   1.000000
   61      -51.138472    -46.387324   1.000000   1.000000
   62      -51.138174    -46.386930   1.000000   1.000000
   63      -51.137969    -46.386680   1.000000   1.000000
   64      -51.137764    -46.386354   1.000000   1.000000
   65      -49.649484    -45.930527   1.000000   1.000000
   66      -49.648976    -45.930485   1.000000   1.000000
   67      -49.648735    -45.930236   1.000000   1.000000
   68      -49.648383    -45.929786   1.000000   1.000000
   69      -49.647967    -45.929639   1.000000   1.000000
   70      -49.647867    -45.929374   1.000000   1.000000
   71      -49.647853    -45.929288   1.000000   1.000000
   72      -49.647670    -45.929253   1.000000   1.000000
   73      -49.647582    -45.929171   1.000000   1.000000
   74      -49.647495    -45.929009   1.000000   1.000000
   75      -49.647482    -45.928877   1.000000   1.000000
   76      -49.647404    -45.928872   1.000000   1.000000
   77      -49.647401    -45.928806   1.000000   1.000000
   78      -49.647385    -45.928783   1.000000   1.000000
   79      -49.647349    -45.928741   1.000000   1.000000
   80      -49.647329    -45.928736   1.000000   1.000000
   81      -49.647302    -45.928700   1.000000   1.000000
   82      -49.647285    -45.928641   1.000000   1.000000
   83      -49.647279    -45.928622   1.000000   1.000000
   84      -49.647218    -45.928598   1.000000   1.000000
   85      -49.647152    -45.928532   1.000000   1.000000
   86      -49.647132    -45.928487   1.000000   1.000000
   87      -49.647089    -45.928477   1.000000   1.000000
   88      -49.647060    -45.928426   1.000000   1.000000
   89      -49.647033    -45.928383   1.000000   1.000000
   90      -49.646998    -45.928340   1.000000   1.000000
   91      -49.646992    -45.928319   1.000000   1.000000
   92      -49.646960    -45.928292   1.000000   1.000000
   93      -49.646938    -45.928283   1.000000   1.000000
   94      -49.646890    -45.928245   1.000000   1.000000
   95      -49.646822    -45.928231   1.000000   1.000000
   96      -49.646807    -45.928218   1.000000   1.000000
   97      -49.646791    -45.928204   1.000000   1.000000
   98      -49.646728    -45.928132   1.000000   1.000000
   99      -49.646722    -45.928074   1.000000   1.000000
  100      -49.646686    -45.928045   1.000000   1.000000
  101      -49.646652    -45.928025   1.000000   1.000000
  102      -49.646594    -45.928016   1.000000   1.000000
  103      -49.646545    -45.927996   1.000000   1.000000
  104      -49.646493    -45.927905   1.000000   1.000000
  105      -49.646478    -45.927892   1.000000   1.000000
  106      -49.646432    -45.927886   1.000000   1.000000
  107      -49.646388    -45.927855   1.000000   1.000000
  108      -49.646381    -45.927816   1.000000   1.000000
  109      -49.646285    -45.927791   1.000000   1.000000
  110      -49.646259    -45.927781   1.000000   1.000000
  111      -49.646250    -45.927672   1.000000   1.000000
  112      -49.646215    -45.927537   1.000000   1.000000
  113      -49.646137    -45.927514   1.000000   1.000000
  114      -49.646078    -45.927512   1.000000   1.000000
  115      -49.646061    -45.927457   1.000000   1.000000
  116      -49.645984    -45.927431   1.000000   1.000000
  117      -49.645926    -45.927420   1.000000   1.000000
  118      -49.645908    -45.927401   1.000000   1.000000
  119      -49.645886    -45.927390   1.000000   1.000000
  120      -49.645877    -45.927367   1.000000   1.000000
  121      -49.645837    -45.927341   1.000000   1.000000
  122      -49.645784    -45.927335   1.000000   1.000000
  123      -49.645746    -45.927304   1.000000   1.000000
  124      -49.645682    -45.927283   1.000000   1.000000
  125      -49.645677    -45.927272   1.000000   1.000000
  126      -49.645666    -45.927262   1.000000   1.000000
  127      -49.645642    -45.927199   1.000000   1.000000
  128      -49.645637    -45.927176   1.000000   1.000000
  129      -49.645542    -45.927169   1.000000   1.000000
  130      -49.645495    -45.927116   1.000000   1.000000
  131      -49.645470    -45.927104   1.000000   1.000000
  132      -49.645465    -45.927093   1.000000   1.000000
  133      -49.645436    -45.927045   1.000000   1.000000
  134      -49.645432    -45.927029   1.000000   1.000000
  135      -49.645417    -45.927006   1.000000   1.000000
  136      -49.645347    -45.926975   1.000000   1.000000
  137      -49.645330    -45.926950   1.000000   1.000000
  138      -49.645324    -45.926938   1.000000   1.000000
  139      -49.645297    -45.926921   1.000000   1.000000
  140      -49.645256    -45.926880   1.000000   1.000000
  141      -49.645225    -45.926873   1.000000   1.000000
  142      -49.645193    -45.926804   1.000000   1.000000
  143      -49.645156    -45.926750   1.000000   1.000000
  144      -49.645134    -45.926714   1.000000   1.000000
  145      -49.645114    -45.926712   1.000000   1.000000
  146      -49.645087    -45.926696   1.000000   1.000000
  147      -49.645014    -45.926685   1.000000   1.000000
  148      -49.645000    -45.926645   1.000000   1.000000
  149      -49.644953    -45.926638   1.000000   1.000000
  150      -49.644920    -45.926609   1.000000   1.000000
  151      -49.644878    -45.926599   1.000000   1.000000
  152      -49.644870    -45.926566   1.000000   1.000000
  153      -49.644845    -45.926535   1.000000   1.000000
  154      -49.644817    -45.926524   1.000000   1.000000
  155      -49.644806    -45.926516   1.000000   1.000000
  156      -49.644688    -45.926502   1.000000   1.000000
  157      -49.644664    -45.926470   1.000000   1.000000
  158      -49.644598    -45.926454   1.000000   1.000000
  159      -49.644588    -45.926427   1.000000   1.000000
  160      -49.644559    -45.926387   1.000000   1.000000
  161      -49.644546    -45.926361   1.000000   1.000000
  162      -49.644523    -45.926339   1.000000   1.000000
  163      -49.644521    -45.926306   1.000000   1.000000
  164      -49.644429    -45.926293   1.000000   1.000000
  165      -49.644398    -45.926286   1.000000   1.000000
  166      -49.644380    -45.926203   1.000000   1.000000
  167      -49.644333    -45.926179   1.000000   1.000000
  168      -49.644274    -45.926136   1.000000   1.000000
  169      -49.644245    -45.926115   1.000000   1.000000
  170      -49.644203    -45.926092   1.000000   1.000000
  171      -49.644189    -45.926075   1.000000   1.000000
  172      -49.644125    -45.926011   1.000000   1.000000
  173      -49.644117    -45.925962   1.000000   1.000000
  174      -49.644107    -45.925872   1.000000   1.000000
  175      -49.644068    -45.925816   1.000000   1.000000
  176      -49.644017    -45.925757   1.000000   1.000000
  177      -49.643993    -45.925721   1.000000   1.000000
  178      -49.643966    -45.925706   1.000000   1.000000
  179      -49.643885    -45.925687   1.000000   1.000000
  180      -49.643813    -45.925666   1.000000   1.000000
  181      -49.643805    -45.925627   1.000000   1.000000
  182      -49.643580    -45.925615   1.000000   1.000000
  183      -49.643510    -45.925505   1.000000   1.000000
  184      -49.643498    -45.925460   1.000000   1.000000
  185      -49.643470    -45.925218   1.000000   1.000000
  186      -49.643397    -45.925147   1.000000   1.000000
  187      -49.643327    -45.925039   1.000000   1.000000
  188      -49.643260    -45.924807   1.000000   1.000000
  189      -49.642915    -45.924667   1.000000   1.000000
  190      -49.642692    -45.924331   1.000000   1.000000
  191      -49.642440    -45.924255   1.000000   1.000000
  192      -49.642121    -45.923820   1.000000   1.000000
  193      -39.641190    -39.640275   1.000000   1.000000
  194      -39.641054    -39.640136   1.000000   1.000000
  195      -39.634081    -39.633214   1.000000   1.000000
  196      -39.633542    -39.632670   1.000000   1.000000
  197      -39.633464    -39.632591   1.000000   1.000000
  198      -39.633421    -39.632549   1.000000   1.000000
  199      -39.633417    -39.632544   1.000000   1.000000
  200      -39.633394    -39.632521   1.000000   1.000000
  201      -39.633331    -39.632458   1.000000   1.000000
  202      -39.632870    -39.631995   1.000000   1.000000
  203      -39.628105    -39.627271   1.000000   1.000000
  204      -39.627966    -39.627129   1.000000   1.000000
  205      -39.627816    -39.626977   1.000000   1.000000
  206      -39.627809    -39.626972   1.000000   1.000000
  207      -39.627705    -39.626868   1.000000   1.000000
  208      -39.627690    -39.626852   1.000000   1.000000
  209      -39.627516    -39.626678   1.000000   1.000000
  210      -39.627335    -39.626494   1.000000   1.000000
  211      -39.616889    -39.616128   1.000000   1.000000
  212      -39.616638    -39.615865   1.000000   1.000000
  213      -39.616111    -39.615335   1.000000   1.000000
  214      -39.615972    -39.615196   1.000000   1.000000
  215      -39.615967    -39.615189   1.000000   1.000000
  216      -39.615718    -39.614941   1.000000   1.000000
  217      -39.615664    -39.614886   1.000000   1.000000
  218      -39.615656    -39.614876   1.000000   1.000000
  219      -39.615544    -39.614773   1.000000   1.000000
  220      -39.615371    -39.614601   1.000000   1.000000
  221      -39.615292    -39.614523   1.000000   1.000000
  222      -39.615219    -39.614450   1.000000   1.000000
  223      -39.615174    -39.614406   1.000000   1.000000
  224      -39.615159    -39.614392   1.000000   1.000000
  225      -39.615150    -39.614383   1.000000   1.000000
  226      -39.615120    -39.614353   1.000000   1.000000
  227      -39.615002    -39.614233   1.000000   1.000000
  228      -39.614990    -39.614222   1.000000   1.000000
  229      -39.614960    -39.614193   1.000000   1.000000
  230      -39.614938    -39.614170   1.000000   1.000000
  231      -39.614924    -39.614155   1.000000   1.000000
  232      -39.614873    -39.614105   1.000000   1.000000
  233      -39.614834    -39.614066   1.000000   1.000000
  234      -39.614415    -39.613647   1.000000   1.000000
  235      -39.614320    -39.613562   1.000000   1.000000
  236      -39.614164    -39.613405   1.000000   1.000000
  237      -39.613759    -39.612998   1.000000   1.000000
  238      -39.613005    -39.612231   1.000000   1.000000
  239      -39.604280    -39.603564   1.000000   1.000000
  240      -39.604002    -39.603284   1.000000   1.000000
  241      -39.603883    -39.603164   1.000000   1.000000
  242      -39.603861    -39.603141   1.000000   1.000000
  243      -39.603772    -39.603053   1.000000   1.000000
  244      -39.603755    -39.603037   1.000000   1.000000
  245      -39.603637    -39.602917   1.000000   1.000000
  246      -39.603478    -39.602755   1.000000   1.000000
  247      -39.600040    -39.599336   1.000000   1.000000
  248      -39.599623    -39.598918   1.000000   1.000000
  249      -39.599554    -39.598849   1.000000   1.000000
  250      -39.599531    -39.598826   1.000000   1.000000
  251      -39.599526    -39.598820   1.000000   1.000000
  252      -39.599500    -39.598794   1.000000   1.000000
  253      -39.599362    -39.598656   1.000000   1.000000
  254      -39.598840    -39.598128   1.000000   1.000000
  255      -39.593287    -39.592604   1.000000   1.000000
  256      -39.593099    -39.592414   1.000000   1.000000
  257      -12.747204    -12.467734   1.000000   1.000000
  258      -12.747181    -12.467710   1.000000   1.000000
  259      -12.719670    -12.439921   1.000000   1.000000
  260      -12.719408    -12.439643   1.000000   1.000000
  261      -12.719332    -12.439581   1.000000   1.000000
  262      -12.719328    -12.439577   1.000000   1.000000
  263      -12.719308    -12.439556   1.000000   1.000000
  264      -12.719300    -12.439550   1.000000   1.000000
  265      -12.719209    -12.439466   1.000000   1.000000
  266      -12.718990    -12.439235   1.000000   1.000000
  267      -12.697183    -12.417010   1.000000   1.000000
  268      -12.697152    -12.416979   1.000000   1.000000
  269      -12.694783    -12.415173   1.000000   1.000000
  270      -12.694752    -12.415144   1.000000   1.000000
  271      -12.694727    -12.415120   1.000000   1.000000
  272      -12.694726    -12.415118   1.000000   1.000000
  273      -12.692389    -12.413323   1.000000   1.000000
  274      -12.692326    -12.413277   1.000000   1.000000
  275      -12.691243    -12.411211   1.000000   1.000000
  276      -12.691238    -12.411209   1.000000   1.000000
  277      -12.691223    -12.411191   1.000000   1.000000
  278      -12.691154    -12.411138   1.000000   1.000000
  279      -12.672859    -12.392838   1.000000   1.000000
  280      -12.672677    -12.392667   1.000000   1.000000
  281      -12.672617    -12.392605   1.000000   1.000000
  282      -12.672456    -12.392441   1.000000   1.000000
  283      -12.667784    -12.388885   1.000000   1.000000
  284      -12.667610    -12.388724   1.000000   1.000000
  285      -12.667550    -12.388664   1.000000   1.000000
  286      -12.667383    -12.388490   1.000000   1.000000
  287      -12.654503    -12.374550   1.000000   1.000000
  288      -12.643730    -12.366005   1.000000   1.000000
  289       -7.800035     -7.599036   1.000000   1.000000
  290       -7.748243     -7.551522   1.000000   1.000000
  291       -7.506274     -7.319940   1.000000   1.000000
  292       -7.505385     -7.319130   1.000000   1.000000
  293       -7.505347     -7.319092   1.000000   1.000000
  294       -7.504705     -7.318394   1.000000   1.000000
  295       -7.501606     -7.309527   1.000000   1.000000
  296       -7.500966     -7.308821   1.000000   1.000000
  297       -7.500918     -7.308776   1.000000   1.000000
  298       -7.500049     -7.307980   1.000000   1.000000
  299       -7.315216     -7.117762   1.000000   1.000000
  300       -7.315150     -7.117683   1.000000   1.000000
  301       -7.296886     -7.093621   1.000000   1.000000
  302       -7.296829     -7.093547   1.000000   1.000000
  303       -7.296793     -7.093509   1.000000   1.000000
  304       -7.296746     -7.093450   1.000000   1.000000
  305       -7.269260     -7.061971   1.000000   1.000000
  306       -7.269186     -7.061882   1.000000   1.000000
  307       -7.088764     -6.893895   1.000000   1.000000
  308       -7.084709     -6.893879   1.000000   1.000000
  309       -7.084670     -6.893836   1.000000   1.000000
  310       -7.084634     -6.893801   1.000000   1.000000
  311       -7.084532     -6.796771   1.000000   1.000000
  312       -7.046589     -6.783863   1.000000   1.000000
  313       -7.001307     -6.768857   1.000000   1.000000
  314       -6.999970     -6.767987   1.000000   1.000000
  315       -6.999903     -6.767913   1.000000   1.000000
  316       -6.999781     -6.767874   1.000000   1.000000
  317       -6.999769     -6.766879   1.000000   1.000000
  318       -6.999741     -6.766211   1.000000   1.000000
  319       -6.999625     -6.766146   1.000000   1.000000
  320       -6.998497     -6.766087   1.000000   1.000000
  321       -6.994856     -6.766057   1.000000   1.000000
  322       -6.994162     -6.766031   1.000000   1.000000
  323       -6.994042     -6.765915   1.000000   1.000000
  324       -6.993349     -6.764493   1.000000   1.000000
  325       -6.955842     -6.745576   1.000000   1.000000
  326       -6.955793     -6.744882   1.000000   1.000000
  327       -6.955746     -6.744849   1.000000   1.000000
  328       -6.955736     -6.744100   1.000000   1.000000
  329       -6.948328     -6.697492   1.000000   1.000000
  330       -6.948275     -6.697480   1.000000   1.000000
  331       -6.929341     -6.689782   1.000000   1.000000
  332       -6.928661     -6.689089   1.000000   1.000000
  333       -6.928600     -6.689049   1.000000   1.000000
  334       -6.927800     -6.688275   1.000000   1.000000
  335       -6.911318     -6.640764   1.000000   1.000000
  336       -6.911282     -6.639697   1.000000   1.000000
  337       -6.885740     -6.639202   1.000000   1.000000
  338       -6.885730     -6.639073   1.000000   1.000000
  339       -6.885641     -6.639060   1.000000   1.000000
  340       -6.885638     -6.638999   1.000000   1.000000
  341       -6.878093     -6.638920   1.000000   1.000000
  342       -6.876951     -6.638607   1.000000   1.000000
  343       -6.876841     -6.638365   1.000000   1.000000
  344       -6.876809     -6.638357   1.000000   1.000000
  345       -6.876786     -6.637615   1.000000   1.000000
  346       -6.876680     -6.637044   1.000000   1.000000
  347       -6.876641     -6.628066   1.000000   1.000000
  348       -6.875247     -6.627886   1.000000   1.000000
  349       -6.832570     -6.586612   1.000000   1.000000
  350       -6.832555     -6.586593   1.000000   1.000000
  351       -6.794267     -6.499088   1.000000   1.000000
  352       -6.794206     -6.499048   1.000000   1.000000
  353       -1.525518     -0.414588   1.000000   1.000000
  354       -1.467936     -0.414564   1.000000   1.000000
  355       -1.467716     -0.414463   1.000000   1.000000
  356       -1.467573     -0.414438   1.000000   1.000000
  357       -1.467484      0.026116   1.000000   1.000000
  358       -1.460334      0.026380   1.000000   1.000000
  359       -1.460321      0.026450   1.000000   1.000000
  360       -1.460168      0.026507   1.000000   1.000000
  361       -1.460151      0.037575   1.000000   1.000000
  362       -1.421394      0.037844   1.000000   1.000000
  363       -1.421327      0.037972   1.000000   1.000000
  364       -1.382802      0.037992   1.000000   1.000000
  365       -1.382796      0.038017   1.000000   1.000000
  366       -1.382754      0.038130   1.000000   1.000000
  367       -1.382748      0.038269   1.000000   1.000000
  368       -1.332818      0.038669   1.000000   1.000000
  369       -1.332765      0.102887   1.000000   1.000000
  370       -1.332561      0.102932   1.000000   1.000000
  371       -1.332502      0.207533   1.000000   1.000000
  372       -1.332473      0.207548   1.000000   1.000000
  373       -1.332434      0.207562   1.000000   1.000000
  374       -1.332235      0.207566   1.000000   1.000000
  375       -1.332182      0.304172   1.000000   1.000000
  376       -1.292732      0.392387   1.000000   1.000000
  377       -1.292532      0.392577   1.000000   1.000000
  378       -1.292364      0.392695   1.000000   1.000000
  379       -1.292273      0.392749   1.000000   1.000000
  380       -1.256792      0.490888   1.000000   1.000000
  381       -1.256784      0.490908   1.000000   1.000000
  382       -1.232200      0.497347   1.000000   1.000000
  383       -1.232133      0.497669   1.000000   1.000000
  384       -1.220382      0.497741   1.000000   1.000000
  385       -0.822799      0.498015   1.000000   1.000000
  386       -0.822717      0.510647   1.000000   1.000000
  387       -0.822660      0.510698   1.000000   1.000000
  388       -0.822638      0.531173   1.000000   1.000000
  389       -0.722697      0.531199   1.000000   1.000000
  390       -0.722620      0.531287   1.000000   1.000000
  391       -0.699183      0.531314   1.000000   1.000000
  392       -0.699100      0.573470   1.000000   1.000000
  393       -0.698996      0.574182   1.000000   1.000000
  394       -0.698886      0.574310   1.000000   1.000000
  395       -0.688524      0.574365   1.000000   1.000000
  396       -0.688379      0.574425   1.000000   1.000000
  397       -0.688207      0.574453   1.000000   1.000000
  398       -0.688168      0.574557   1.000000   1.000000
  399       -0.666821      0.575356   1.000000   1.000000
  400       -0.666612      0.638622   1.000000   1.000000
  401       -0.666520      0.666298   1.000000   1.000000
  402       -0.666346      0.666347   1.000000   1.000000
  403       -0.652048      0.733093   1.000000   1.000000
  404       -0.651902      0.733113   1.000000   1.000000
  405       -0.651787      0.931379   1.000000   1.000000
  406       -0.651621      0.932545   1.000000   1.000000
  407       -0.589441      0.935581   1.000000   1.000000
  408       -0.589394      0.935666   1.000000   1.000000
  409       -0.576580      0.948833   1.000000   1.000000
  410       -0.576570      0.948893   1.000000   1.000000
  411       -0.576519      0.949012   1.000000   1.000000
  412       -0.576512      0.949111   1.000000   1.000000
  413       -0.553432      0.986144   1.000000   1.000000
  414       -0.553353      0.986162   1.000000   1.000000
  415       -0.553213      0.986226   1.000000   1.000000
  416       -0.552862      0.986300   1.000000   1.000000
  417       -0.497629      0.992787   1.000000   1.000000
  418       -0.496879      0.992986   1.000000   1.000000
  419       -0.472913      1.008880   1.000000   1.000000
  420       -0.472687      1.008934   1.000000   1.000000
  421       -0.461633      1.008958   1.000000   1.000000
  422       -0.461580      1.009020   1.000000   1.000000
  423       -0.461295      1.018473   1.000000   1.000000
  424       -0.461066      1.049083   1.000000   1.000000
  425       -0.459780      1.049104   1.000000   1.000000
  426       -0.459696      1.051593   1.000000   1.000000
  427       -0.459474      1.051660   1.000000   1.000000
  428       -0.459239      1.051882   1.000000   1.000000
  429       -0.410066      1.051909   1.000000   1.000000
  430       -0.409959      1.078623   1.000000   1.000000
  431       -0.407592      1.078668   1.000000   1.000000
  432       -0.407571      1.078847   1.000000   1.000000
  433       -0.407510      1.078988   1.000000   1.000000
  434       -0.407460      1.079853   1.000000   1.000000
  435       -0.407368      1.079894   1.000000   1.000000
  436       -0.407286      1.079939   1.000000   1.000000
  437       -0.383311      1.080006   1.000000   1.000000
  438       -0.383273      1.192853   1.000000   1.000000
  439       -0.378183      1.192889   1.000000   1.000000
  440       -0.369211      1.376468   1.000000   1.000000
  441       -0.368904      1.390370   1.000000   1.000000
  442       -0.368803      1.391101   1.000000   1.000000
  443       -0.368767      1.391172   1.000000   1.000000
  444       -0.368686      1.391239   1.000000   1.000000
  445       -0.368660      1.391604   1.000000   1.000000
  446       -0.368474      1.437318   1.000000   1.000000
  447       -0.368219      1.450214   1.000000   1.000000
  448       -0.353541      1.526308   1.000000   1.000000
  449       -0.353537      1.526369   1.000000   1.000000
  450       -0.349054      1.526440   1.000000   1.000000
  451       -0.341792      1.526493   1.000000   1.000000
  452       -0.335896      1.528884   1.000000   1.000000
  453       -0.335776      1.528926   1.000000   1.000000
  454       -0.335378      1.528981   1.000000   1.000000
  455       -0.335351      1.529006   1.000000   1.000000
  456       -0.334263      1.558257   1.000000   1.000000
  457       -0.334191      1.558308   1.000000   1.000000
  458       -0.334052      1.558342   1.000000   1.000000
  459       -0.333990      1.558359   1.000000   1.000000
  460       -0.324332      1.566433   1.000000   1.000000
  461       -0.324232      1.566746   1.000000   1.000000
  462       -0.323877      1.566981   1.000000   1.000000
  463       -0.323848      1.567165   1.000000   1.000000
  464       -0.321688      1.568003   1.000000   1.000000
  465       -0.321530      1.568320   1.000000   1.000000
  466       -0.321191      1.568547   1.000000   1.000000
  467       -0.321162      1.568732   1.000000   1.000000
  468       -0.303833      1.586600   1.000000   1.000000
  469       -0.295907      1.586673   1.000000   1.000000
  470       -0.288067      1.695669   1.000000   1.000000
  471       -0.287889      1.695767   1.000000   1.000000
  472       -0.287801      1.740896   1.000000   1.000000
  473       -0.287681      1.740925   1.000000   1.000000
  474       -0.280416      1.741170   1.000000   1.000000
  475       -0.280366      1.741367   1.000000   1.000000
  476       -0.275082      1.746871   1.000000   1.000000
  477       -0.275072      1.746874   1.000000   1.000000
  478       -0.274824      1.746909   1.000000   1.000000
  479       -0.274797      1.746913   1.000000   1.000000
  480       -0.241765      1.779032   1.000000   1.000000
  481       -0.241622      1.780608   1.000000   1.000000
  482       -0.241607      1.780660   1.000000   1.000000
  483       -0.241593      1.836777   1.000000   1.000000
  484       -0.241571      1.836939   1.000000   1.000000
  485       -0.241391      1.837067   1.000000   1.000000
  486       -0.241138      1.837404   1.000000   1.000000
  487       -0.241022      1.837731   1.000000   1.000000
  488       -0.207402      1.837768   1.000000   1.000000
  489       -0.207396      1.838451   1.000000   1.000000
  490       -0.199640      1.838787   1.000000   1.000000
  491       -0.199612      1.866211   1.000000   1.000000
  492       -0.199521      1.866414   1.000000   1.000000
  493       -0.199492      1.913329   1.000000   1.000000
  494       -0.194087      1.913422   1.000000   1.000000
  495       -0.193946      1.913512   1.000000   1.000000
  496       -0.163986      1.913527   1.000000   1.000000
  497       -0.163961      1.913646   1.000000   1.000000
  498       -0.163932      1.913670   1.000000   1.000000
  499       -0.163659      1.913725   1.000000   1.000000
  500       -0.156673      1.913839   1.000000   1.000000
  501       -0.156650      1.926924   1.000000   1.000000
  502       -0.156334      1.927035   1.000000   1.000000
  503       -0.155909      1.927069   1.000000   1.000000
  504       -0.139083      1.927107   1.000000   1.000000
  505       -0.139006      2.133209   1.000000   1.000000
  506       -0.138847      2.133293   1.000000   1.000000
  507       -0.138810      2.191256   1.000000   1.000000
  508       -0.091040      2.193184   1.000000   1.000000
  509       -0.090900      2.300496   1.000000   1.000000
  510       -0.082678      2.300884   1.000000   1.000000
  511       -0.082497      2.301051   1.000000   1.000000
  512       -0.082442      2.301382   1.000000   1.000000