 vasp.5.4.4.18Apr17-6-g9f103f2a35 (build Oct 25 2017 14:42:18) complex          
  
 executed on             LinuxIFC date 2021.04.13  02:40:22
 running on   20 total cores
 distrk:  each k-point on   10 cores,    2 groups
 distr:  one band on NCORES_PER_BAND=  10 cores,    1 groups


--------------------------------------------------------------------------------------------------------


 INCAR:
 POTCAR:    PAW_PBE Li_sv 10Sep2004               
 POTCAR:    PAW_PBE O 08Apr2002                   
 POTCAR:    PAW_PBE S 06Sep2000                   
 POTCAR:    PAW_PBE Fe_pv 02Aug2007               

 ----------------------------------------------------------------------------- 
|                                                                             |
|           W    W    AA    RRRRR   N    N  II  N    N   GGGG   !!!           |
|           W    W   A  A   R    R  NN   N  II  NN   N  G    G  !!!           |
|           W    W  A    A  R    R  N N  N  II  N N  N  G       !!!           |
|           W WW W  AAAAAA  RRRRR   N  N N  II  N  N N  G  GGG   !            |
|           WW  WW  A    A  R   R   N   NN  II  N   NN  G    G                |
|           W    W  A    A  R    R  N    N  II  N    N   GGGG   !!!           |
|                                                                             |
|      For optimal performance we recommend to set                            |
|        NCORE= 4 - approx SQRT( number of cores)                             |
|      NCORE specifies how many cores store one orbital (NPAR=cpu/NCORE).     |
|      This setting can  greatly improve the performance of VASP for DFT.     |
|      The default,   NCORE=1            might be grossly inefficient         |
|      on modern multi-core architectures or massively parallel machines.     |
|      Do your own testing !!!!                                               |
|      Unfortunately you need to use the default for GW and RPA calculations. |
|      (for HF NCORE is supported but not extensively tested yet)             |
|                                                                             |
 ----------------------------------------------------------------------------- 


 ----------------------------------------------------------------------------- 
|                                                                             |
|           W    W    AA    RRRRR   N    N  II  N    N   GGGG   !!!           |
|           W    W   A  A   R    R  NN   N  II  NN   N  G    G  !!!           |
|           W    W  A    A  R    R  N N  N  II  N N  N  G       !!!           |
|           W WW W  AAAAAA  RRRRR   N  N N  II  N  N N  G  GGG   !            |
|           WW  WW  A    A  R   R   N   NN  II  N   NN  G    G                |
|           W    W  A    A  R    R  N    N  II  N    N   GGGG   !!!           |
|                                                                             |
|      You have enabled k-point parallelism (KPAR>1).                         |
|      This developmental code was originally  written by Paul Kent at ORNL,  |
|      and carefully double checked in Vienna.                                |
|      GW as well as linear response parallelism added by Martijn Marsman     |
|      and Georg Kresse.                                                      |
|      Carefully verify results versus KPAR=1.                                |
|      Report problems to Paul Kent and Vienna.                               |
|                                                                             |
 ----------------------------------------------------------------------------- 

 POTCAR:    PAW_PBE Li_sv 10Sep2004               
  local pseudopotential read in
  atomic valenz-charges read in
  non local Contribution for L=           0  read in
    real space projection operators read in
  non local Contribution for L=           0  read in
    real space projection operators read in
  non local Contribution for L=           1  read in
    real space projection operators read in
    PAW grid and wavefunctions read in
 
   number of l-projection  operators is LMAX  =           3
   number of lm-projection operators is LMMAX =           5
 
 POTCAR:    PAW_PBE O 08Apr2002                   
  local pseudopotential read in
  partial core-charges read in
  partial kinetic energy density read in
  kinetic energy density of atom read in
  atomic valenz-charges read in
  non local Contribution for L=           0  read in
    real space projection operators read in
  non local Contribution for L=           0  read in
    real space projection operators read in
  non local Contribution for L=           1  read in
    real space projection operators read in
  non local Contribution for L=           1  read in
    real space projection operators read in
    PAW grid and wavefunctions read in
 
   number of l-projection  operators is LMAX  =           4
   number of lm-projection operators is LMMAX =           8
 
 POTCAR:    PAW_PBE S 06Sep2000                   
  local pseudopotential read in
  partial core-charges read in
  partial kinetic energy density read in
  atomic valenz-charges read in
  non local Contribution for L=           0  read in
    real space projection operators read in
  non local Contribution for L=           0  read in
    real space projection operators read in
  non local Contribution for L=           1  read in
    real space projection operators read in
  non local Contribution for L=           1  read in
    real space projection operators read in
    PAW grid and wavefunctions read in
 
   number of l-projection  operators is LMAX  =           4
   number of lm-projection operators is LMMAX =           8
 
 POTCAR:    PAW_PBE Fe_pv 02Aug2007               
  local pseudopotential read in
  partial core-charges read in
  partial kinetic energy density read in
  atomic valenz-charges read in
  non local Contribution for L=           1  read in
    real space projection operators read in
  non local Contribution for L=           1  read in
    real space projection operators read in
  non local Contribution for L=           2  read in
    real space projection operators read in
  non local Contribution for L=           2  read in
    real space projection operators read in
  non local Contribution for L=           0  read in
    real space projection operators read in
  non local Contribution for L=           0  read in
    real space projection operators read in
    PAW grid and wavefunctions read in
 
   number of l-projection  operators is LMAX  =           6
   number of lm-projection operators is LMMAX =          18
 

 ----------------------------------------------------------------------------- 
|                                                                             |
|  ADVICE TO THIS USER RUNNING 'VASP/VAMP'   (HEAR YOUR MASTER'S VOICE ...):  |
|                                                                             |
|      You have a (more or less) 'large supercell' and for larger cells       |
|      it might be more efficient to use real space projection opertators     |
|      So try LREAL= Auto  in the INCAR   file.                               |
|      Mind:          For very  accurate calculation you might also keep the  |
|      reciprocal projection scheme          (i.e. LREAL=.FALSE.)             |
|                                                                             |
 ----------------------------------------------------------------------------- 

  PAW_PBE Li_sv 10Sep2004               :
 energy of atom  1       EATOM= -202.7858
 kinetic energy error for atom=    0.0072 (will be added to EATOM!!)
  PAW_PBE O 08Apr2002                   :
 energy of atom  2       EATOM= -432.3788
 kinetic energy error for atom=    0.0129 (will be added to EATOM!!)
  PAW_PBE S 06Sep2000                   :
 energy of atom  3       EATOM= -276.8230
 kinetic energy error for atom=    0.0008 (will be added to EATOM!!)
  PAW_PBE Fe_pv 02Aug2007               :
 energy of atom  4       EATOM=-2457.4239
 kinetic energy error for atom=    0.0041 (will be added to EATOM!!)
 
 
 POSCAR: # Compound: Li24O24S24Fe36. Old comment:
  positions in direct lattice
  No initial velocities read in
 exchange correlation table for  LEXCH =        8
   RHO(1)=    0.500       N(1)  =     2000
   RHO(2)=  100.500       N(2)  =     4000
 


--------------------------------------------------------------------------------------------------------


 ion  position               nearest neighbor table
   1  0.105  0.250  0.000-  31 1.99  37 1.99
   2  0.438  0.250  0.000-  32 1.99  38 1.99
   3  0.772  0.250  0.000-  33 1.99  39 1.99
   4  0.105  0.750  0.000-  34 1.99  40 1.99
   5  0.438  0.750  0.000-  35 1.99  41 1.99
   6  0.772  0.750  0.000-  36 1.99  42 1.99
   7  0.105  0.250  0.500-  25 1.99  43 1.99
   8  0.438  0.250  0.500-  26 1.99  44 1.99
   9  0.772  0.250  0.500-  27 1.99  45 1.99
  10  0.105  0.750  0.500-  28 1.99  46 1.99
  11  0.438  0.750  0.500-  29 1.99  47 1.99
  12  0.772  0.750  0.500-  30 1.99  48 1.99
  13  0.105  0.000  0.250-  25 1.99  40 1.99
  14  0.438  0.000  0.250-  26 1.99  41 1.99
  15  0.772  0.000  0.250-  27 1.99  42 1.99
  16  0.105  0.500  0.250-  28 1.99  37 1.99
  17  0.438  0.500  0.250-  29 1.99  38 1.99
  18  0.772  0.500  0.250-  30 1.99  39 1.99
  19  0.105  0.000  0.750-  31 1.99  46 1.99
  20  0.438  0.000  0.750-  32 1.99  47 1.99
  21  0.772  0.000  0.750-  33 1.99  48 1.99
  22  0.105  0.500  0.750-  34 1.99  43 1.99
  23  0.438  0.500  0.750-  35 1.99  44 1.99
  24  0.772  0.500  0.750-  36 1.99  45 1.99
  25  0.106  0.125  0.375-  13 1.99   7 1.99  87 2.00  85 2.00 103 2.02
  26  0.439  0.125  0.375-  14 1.99   8 1.99  85 2.00  86 2.00 104 2.02
  27  0.773  0.125  0.375-  15 1.99   9 1.99  86 2.00  87 2.00 105 2.02
  28  0.106  0.625  0.375-  16 1.99  10 1.99  90 2.00  88 2.00 106 2.02
  29  0.439  0.625  0.375-  17 1.99  11 1.99  88 2.00  89 2.00 107 2.02
  30  0.773  0.625  0.375-  18 1.99  12 1.99  89 2.00  90 2.00 108 2.02
  31  0.106  0.125  0.875-  19 1.99   1 1.99  93 2.00  91 2.00  97 2.02
  32  0.439  0.125  0.875-  20 1.99   2 1.99  91 2.00  92 2.00  98 2.02
  33  0.773  0.125  0.875-  21 1.99   3 1.99  92 2.00  93 2.00  99 2.02
  34  0.106  0.625  0.875-  22 1.99   4 1.99  96 2.00  94 2.00 100 2.02
  35  0.439  0.625  0.875-  23 1.99   5 1.99  94 2.00  95 2.00 101 2.02
  36  0.773  0.625  0.875-  24 1.99   6 1.99  95 2.00  96 2.00 102 2.02
  37  0.106  0.375  0.125-  16 1.99   1 1.99  75 2.00  73 2.00 100 2.02
  38  0.439  0.375  0.125-  17 1.99   2 1.99  73 2.00  74 2.00 101 2.02
  39  0.773  0.375  0.125-  18 1.99   3 1.99  74 2.00  75 2.00 102 2.02
  40  0.106  0.875  0.125-  13 1.99   4 1.99  78 2.00  76 2.00  97 2.02
  41  0.439  0.875  0.125-  14 1.99   5 1.99  76 2.00  77 2.00  98 2.02
  42  0.773  0.875  0.125-  15 1.99   6 1.99  77 2.00  78 2.00  99 2.02
  43  0.106  0.375  0.625-  22 1.99   7 1.99  81 2.00  79 2.00 106 2.02
  44  0.439  0.375  0.625-  23 1.99   8 1.99  79 2.00  80 2.00 107 2.02
  45  0.773  0.375  0.625-  24 1.99   9 1.99  80 2.00  81 2.00 108 2.02
  46  0.106  0.875  0.625-  19 1.99  10 1.99  84 2.00  82 2.00 103 2.02
  47  0.439  0.875  0.625-  20 1.99  11 1.99  82 2.00  83 2.00 104 2.02
  48  0.773  0.875  0.625-  21 1.99  12 1.99  83 2.00  84 2.00 105 2.02
  49  0.274  0.118  0.118-  73 2.54  85 2.54  97 2.68  98 2.69
  50  0.606  0.118  0.118-  74 2.54  86 2.54  98 2.67  99 2.69
  51  0.939  0.118  0.118-  75 2.54  87 2.54  99 2.67  97 2.69
  52  0.273  0.618  0.118-  76 2.54  88 2.54 100 2.67 101 2.69
  53  0.606  0.618  0.118-  77 2.54  89 2.54 101 2.67 102 2.69
  54  0.939  0.618  0.118-  78 2.54  90 2.54 102 2.67 100 2.69
  55  0.273  0.118  0.618-  79 2.54  91 2.54 103 2.67 104 2.69
  56  0.606  0.118  0.618-  80 2.54  92 2.54 104 2.67 105 2.69
  57  0.939  0.118  0.618-  81 2.54  93 2.54 105 2.67 103 2.69
  58  0.273  0.618  0.618-  82 2.54  94 2.54 106 2.67 107 2.69
  59  0.606  0.618  0.618-  83 2.54  95 2.54 107 2.67 108 2.69
  60  0.939  0.618  0.618-  84 2.54  96 2.54 108 2.67 106 2.69
  61  0.273  0.382  0.382-  85 2.54  73 2.54 106 2.67 107 2.69
  62  0.606  0.382  0.382-  86 2.54  74 2.54 107 2.67 108 2.69
  63  0.939  0.382  0.382-  87 2.54  75 2.54 108 2.67 106 2.69
  64  0.273  0.882  0.382-  88 2.54  76 2.54 103 2.67 104 2.69
  65  0.606  0.882  0.382-  89 2.54  77 2.54 104 2.67 105 2.69
  66  0.939  0.882  0.382-  90 2.54  78 2.54 105 2.67 103 2.69
  67  0.273  0.382  0.882-  91 2.54  79 2.54 100 2.67 101 2.69
  68  0.606  0.382  0.882-  92 2.54  80 2.54 101 2.67 102 2.69
  69  0.939  0.382  0.882-  93 2.54  81 2.54 102 2.67 100 2.69
  70  0.273  0.882  0.882-  94 2.54  82 2.54  97 2.67  98 2.69
  71  0.606  0.882  0.882-  95 2.54  83 2.54  98 2.67  99 2.69
  72  0.939  0.882  0.882-  96 2.54  84 2.54  99 2.67  97 2.69
  73  0.273  0.339  0.161-  38 2.00  37 2.00  61 2.54  49 2.54
  74  0.606  0.339  0.161-  39 2.00  38 2.00  50 2.54  62 2.54
  75  0.940  0.339  0.161-  37 2.00  39 2.00  51 2.54  63 2.54
  76  0.273  0.839  0.161-  41 2.00  40 2.00  52 2.54  64 2.54
  77  0.606  0.839  0.161-  42 2.00  41 2.00  53 2.54  65 2.54
  78  0.940  0.839  0.161-  40 2.00  42 2.00  54 2.54  66 2.54
  79  0.273  0.339  0.661-  44 2.00  43 2.00  55 2.54  67 2.54
  80  0.606  0.339  0.661-  45 2.00  44 2.00  56 2.54  68 2.54
  81  0.940  0.339  0.661-  43 2.00  45 2.00  57 2.54  69 2.54
  82  0.273  0.839  0.661-  47 2.00  46 2.00  58 2.54  70 2.54
  83  0.606  0.839  0.661-  48 2.00  47 2.00  59 2.54  71 2.54
  84  0.940  0.839  0.661-  46 2.00  48 2.00  60 2.54  72 2.54
  85  0.273  0.161  0.339-  26 2.00  25 2.00  61 2.54  49 2.54
  86  0.606  0.161  0.339-  27 2.00  26 2.00  62 2.54  50 2.54
  87  0.940  0.161  0.339-  25 2.00  27 2.00  63 2.54  51 2.54
  88  0.273  0.661  0.339-  29 2.00  28 2.00  64 2.54  52 2.54
  89  0.606  0.661  0.339-  30 2.00  29 2.00  65 2.54  53 2.54
  90  0.940  0.661  0.339-  28 2.00  30 2.00  66 2.54  54 2.54
  91  0.273  0.161  0.839-  32 2.00  31 2.00  67 2.54  55 2.54
  92  0.606  0.161  0.839-  33 2.00  32 2.00  68 2.54  56 2.54
  93  0.940  0.161  0.839-  31 2.00  33 2.00  69 2.54  57 2.54
  94  0.273  0.661  0.839-  35 2.00  34 2.00  70 2.54  58 2.54
  95  0.606  0.661  0.839-  36 2.00  35 2.00  71 2.54  59 2.54
  96  0.940  0.661  0.839-  34 2.00  36 2.00  72 2.54  60 2.54
  97  0.107  0.000  0.000-  31 2.02  40 2.02  70 2.67  49 2.68  51 2.69  72 2.69
  98  0.441  0.000  0.000-  32 2.02  41 2.02  50 2.67  71 2.67  49 2.69  70 2.69
  99  0.774  0.000  0.000-  33 2.02  42 2.02  51 2.67  72 2.67  71 2.69  50 2.69
 100  0.107  0.500  0.000-  34 2.02  37 2.02  52 2.67  67 2.67  54 2.69  69 2.69
 101  0.441  0.500  0.000-  35 2.02  38 2.02  53 2.67  68 2.67  67 2.69  52 2.69
 102  0.774  0.500  0.000-  36 2.02  39 2.02  54 2.67  69 2.67  68 2.69  53 2.69
 103  0.107  0.000  0.500-  25 2.02  46 2.02  55 2.67  64 2.67  57 2.69  66 2.69
 104  0.441  0.000  0.500-  26 2.02  47 2.02  56 2.67  65 2.67  64 2.69  55 2.69
 105  0.774  0.000  0.500-  27 2.02  48 2.02  57 2.67  66 2.67  65 2.69  56 2.69
 106  0.107  0.500  0.500-  28 2.02  43 2.02  58 2.67  61 2.67  60 2.69  63 2.69
 107  0.441  0.500  0.500-  29 2.02  44 2.02  59 2.67  62 2.67  61 2.69  58 2.69
 108  0.774  0.500  0.500-  30 2.02  45 2.02  60 2.67  63 2.67  62 2.69  59 2.69
 

IMPORTANT INFORMATION: All symmetrisations will be switched off!
NOSYMM: (Re-)initialisation of all symmetry stuff for point group C_1.

 
 
 KPOINTS: # No comment                            

Automatic generation of k-mesh.
Space group operators:
 irot       det(A)        alpha          n_x          n_y          n_z        tau_x        tau_y        tau_z
    1     1.000000     0.000000     1.000000     0.000000     0.000000     0.000000     0.000000     0.000000
 
 Subroutine IBZKPT returns following result:
 ===========================================
 
 Found     14 irreducible k-points:
 
 Following reciprocal coordinates:
            Coordinates               Weight
  0.000000  0.000000  0.000000      1.000000
  0.333333  0.000000  0.000000      2.000000
  0.000000  0.333333  0.000000      2.000000
  0.333333  0.333333  0.000000      2.000000
 -0.333333  0.333333  0.000000      2.000000
  0.000000  0.000000  0.333333      2.000000
  0.333333  0.000000  0.333333      2.000000
 -0.333333  0.000000  0.333333      2.000000
  0.000000  0.333333  0.333333      2.000000
  0.333333  0.333333  0.333333      2.000000
 -0.333333  0.333333  0.333333      2.000000
  0.000000 -0.333333  0.333333      2.000000
  0.333333 -0.333333  0.333333      2.000000
 -0.333333 -0.333333  0.333333      2.000000
 
 Following cartesian coordinates:
            Coordinates               Weight
  0.000000  0.000000  0.000000      1.000000
  0.028959  0.000000  0.000000      2.000000
  0.000000  0.029420  0.000771      2.000000
  0.028959  0.029420  0.000771      2.000000
 -0.028959  0.029420  0.000771      2.000000
  0.000000 -0.000326  0.029429      2.000000
  0.028959 -0.000326  0.029429      2.000000
 -0.028959 -0.000326  0.029429      2.000000
  0.000000  0.029094  0.030200      2.000000
  0.028959  0.029094  0.030200      2.000000
 -0.028959  0.029094  0.030200      2.000000
  0.000000 -0.029746  0.028658      2.000000
  0.028959 -0.029746  0.028658      2.000000
 -0.028959 -0.029746  0.028658      2.000000
 


--------------------------------------------------------------------------------------------------------




 Dimension of arrays:
   k-points           NKPTS =     14   k-points in BZ     NKDIM =     14   number of bands    NBANDS=    630
   number of dos      NEDOS =    301   number of ions     NIONS =    108
   non local maximal  LDIM  =      6   non local SUM 2l+1 LMDIM =     18
   total plane-waves  NPLWV = 884736
   max r-space proj   IRMAX =      1   max aug-charges    IRDMAX= 151184
   dimension x,y,z NGX =    96 NGY =   96 NGZ =   96
   dimension x,y,z NGXF=   192 NGYF=  192 NGZF=  192
   support grid    NGXF=   384 NGYF=  384 NGZF=  384
   ions per type =              24  24  24  36
   NGX,Y,Z   is equivalent  to a cutoff of  13.87, 14.09, 14.09 a.u.
   NGXF,Y,Z  is equivalent  to a cutoff of  27.73, 28.18, 28.18 a.u.

 SYSTEM =  unknown system                          
 POSCAR =  # Compound: Li24O24S24Fe36. Old comment:

 Startparameter for this run:
   NWRITE =      1    write-flag & timer
   PREC   = accura    normal or accurate (medium, high low for compatibility)
   ISTART =      0    job   : 0-new  1-cont  2-samecut
   ICHARG =      2    charge: 1-file 2-atom 10-const
   ISPIN  =      2    spin polarized calculation?
   LNONCOLLINEAR =      F non collinear calculations
   LSORBIT =      F    spin-orbit coupling
   INIWAV =      1    electr: 0-lowe 1-rand  2-diag
   LASPH  =      T    aspherical Exc in radial PAW
   METAGGA=      F    non-selfconsistent MetaGGA calc.

 Electronic Relaxation 1
   ENCUT  =  650.0 eV  47.77 Ry    6.91 a.u.  23.93 23.55 23.55*2*pi/ulx,y,z
   ENINI  =  650.0     initial cutoff
   ENAUG  =  628.9 eV  augmentation charge cutoff
   NELM   =    200;   NELMIN=  8; NELMDL= -5     # of ELM steps 
   EDIFF  = 0.1E-07   stopping-criterion for ELM
   LREAL  =      F    real-space projection
   NLSPLINE    = F    spline interpolate recip. space projectors
   LCOMPAT=      F    compatible to vasp.4.4
   GGA_COMPAT  = T    GGA compatible to vasp.4.4-vasp.4.6
   LMAXPAW     = -100 max onsite density
   LMAXMIX     =    4 max onsite mixed and CHGCAR
   VOSKOWN=      0    Vosko Wilk Nusair interpolation
   ROPT   =    0.00000   0.00000   0.00000   0.00000
 Ionic relaxation
   EDIFFG = 0.1E-06   stopping-criterion for IOM
   NSW    =      0    number of steps for IOM
   NBLOCK =      1;   KBLOCK =      1    inner block; outer block 
   IBRION =     -1    ionic relax: 0-MD 1-quasi-New 2-CG
   NFREE  =      0    steps in history (QN), initial steepest desc. (CG)
   ISIF   =      3    stress and relaxation
   IWAVPR =     10    prediction:  0-non 1-charg 2-wave 3-comb
   ISYM   =      0    0-nonsym 1-usesym 2-fastsym
   LCORR  =      T    Harris-Foulkes like correction to forces

   POTIM  = 0.5000    time-step for ionic-motion
   TEIN   =    0.0    initial temperature
   TEBEG  =    0.0;   TEEND  =   0.0 temperature during run
   SMASS  =  -3.00    Nose mass-parameter (am)
   estimated Nose-frequenzy (Omega)   =  0.10E-29 period in steps =****** mass=  -0.303E-26a.u.
   SCALEE = 1.0000    scale energy and forces
   NPACO  =    256;   APACO  = 16.0  distance and # of slots for P.C.
   PSTRESS=    0.0 pullay stress

  Mass of Ions in am
   POMASS =   7.01 16.00 32.07 55.85
  Ionic Valenz
   ZVAL   =   3.00  6.00  6.00 14.00
  Atomic Wigner-Seitz radii
   RWIGS  =  -1.00 -1.00 -1.00 -1.00
  virtual crystal weights 
   VCA    =   1.00  1.00  1.00  1.00
   NELECT =     864.0000    total number of electrons
   NUPDOWN=      -1.0000    fix difference up-down

 DOS related values:
   EMIN   =  10.00;   EMAX   =-10.00  energy-range for DOS
   EFERMI =   0.00
   ISMEAR =     0;   SIGMA  =   0.05  broadening in eV -4-tet -1-fermi 0-gaus

 Electronic relaxation 2 (details)
   IALGO  =     38    algorithm
   LDIAG  =      T    sub-space diagonalisation (order eigenvalues)
   LSUBROT=      F    optimize rotation matrix (better conditioning)
   TURBO    =      0    0=normal 1=particle mesh
   IRESTART =      0    0=no restart 2=restart with 2 vectors
   NREBOOT  =      0    no. of reboots
   NMIN     =      0    reboot dimension
   EREF     =   0.00    reference energy to select bands
   IMIX   =      4    mixing-type and parameters
     AMIX     =   0.40;   BMIX     =  1.00
     AMIX_MAG =   1.60;   BMIX_MAG =  1.00
     AMIN     =   0.10
     WC   =   100.;   INIMIX=   1;  MIXPRE=   1;  MAXMIX= -45

 Intra band minimization:
   WEIMIN = 0.0000     energy-eigenvalue tresh-hold
   EBREAK =  0.40E-11  absolut break condition
   DEPER  =   0.30     relativ break condition  

   TIME   =   0.40     timestep for ELM

  volume/ion in A,a.u.               =      13.67        92.27
  Fermi-wavevector in a.u.,A,eV,Ry     =   1.369239  2.587487 25.508418  1.874816
  Thomas-Fermi vector in A             =   2.495132
 
 Write flags
   LWAVE        =      F    write WAVECAR
   LDOWNSAMPLE  =      F    k-point downsampling of WAVECAR
   LCHARG       =      T    write CHGCAR
   LVTOT        =      F    write LOCPOT, total local potential
   LVHAR        =      F    write LOCPOT, Hartree potential only
   LELF         =      F    write electronic localiz. function (ELF)
   LORBIT       =      0    0 simple, 1 ext, 2 COOP (PROOUT), +10 PAW based schemes


 Dipole corrections
   LMONO  =      F    monopole corrections only (constant potential shift)
   LDIPOL =      F    correct potential (dipole corrections)
   IDIPOL =      0    1-x, 2-y, 3-z, 4-all directions 
   EPSILON=  1.0000000 bulk dielectric constant

 LDA+U is selected, type is set to LDAUTYPE =  2
   angular momentum for each species LDAUL =    -1   -1   -1    2
   U (eV)           for each species LDAUU =   0.0  0.0  0.0  4.0
   J (eV)           for each species LDAUJ =   0.0  0.0  0.0  0.0
 Exchange correlation treatment:
   GGA     =    PE    GGA type
   LEXCH   =     8    internal setting for exchange type
   VOSKOWN=      0    Vosko Wilk Nusair interpolation
   LHFCALC =     F    Hartree Fock is set to
   LHFONE  =     F    Hartree Fock one center treatment
   AEXX    =    0.0000 exact exchange contribution

 Linear response parameters
   LEPSILON=     F    determine dielectric tensor
   LRPA    =     F    only Hartree local field effects (RPA)
   LNABLA  =     F    use nabla operator in PAW spheres
   LVEL    =     F    velocity operator in full k-point grid
   LINTERFAST=   F  fast interpolation
   KINTER  =     0    interpolate to denser k-point grid
   CSHIFT  =0.1000    complex shift for real part using Kramers Kronig
   OMEGAMAX=  -1.0    maximum frequency
   DEG_THRESHOLD= 0.2000000E-02 threshold for treating states as degnerate
   RTIME   =   -0.100 relaxation time in fs
  (WPLASMAI=    0.000 imaginary part of plasma frequency in eV, 0.658/RTIME)
   DFIELD  = 0.0000000 0.0000000 0.0000000 field for delta impulse in time
 
 Orbital magnetization related:
   ORBITALMAG=     F  switch on orbital magnetization
   LCHIMAG   =     F  perturbation theory with respect to B field
   DQ        =  0.001000  dq finite difference perturbation B field
   LLRAUG    =     F  two centre corrections for induced B field



--------------------------------------------------------------------------------------------------------


 Static calculation
 charge density and potential will be updated during run
 spin polarized calculation
 Variant of blocked Davidson
 Davidson routine will perform the subspace rotation
 perform sub-space diagonalisation
    after iterative eigenvector-optimisation
 modified Broyden-mixing scheme, WC =      100.0
 initial mixing is a Kerker type mixing with AMIX =  0.4000 and BMIX =      1.0000
 Hartree-type preconditioning will be used
 using additional bands          198
 reciprocal scheme for non local part
 use partial core corrections
 calculate Harris-corrections to forces 
   (improved forces if not selfconsistent)
 use gradient corrections 
 use of overlap-Matrix (Vanderbilt PP)
 Gauss-broadening in eV      SIGMA  =   0.05


--------------------------------------------------------------------------------------------------------


  energy-cutoff  :      650.00
  volume of cell :     1476.73
      direct lattice vectors                 reciprocal lattice vectors
    11.510368470  0.000000000  0.000000000     0.086878192  0.000000000  0.000000000
     0.000000000 11.326709160  0.125489400     0.000000000  0.088261263  0.002313657
     0.000000000 -0.296831520 11.323514440     0.000000000 -0.000978129  0.088286165

  length of vectors
    11.510368470 11.327404292 11.327404302     0.086878192  0.088291583  0.088291583


 
 k-points in units of 2pi/SCALE and weight: # No comment                            
   0.00000000  0.00000000  0.00000000       0.037
   0.02895940  0.00000000  0.00000000       0.074
   0.00000000  0.02942042  0.00077122       0.074
   0.02895940  0.02942042  0.00077122       0.074
  -0.02895940  0.02942042  0.00077122       0.074
   0.00000000 -0.00032604  0.02942872       0.074
   0.02895940 -0.00032604  0.02942872       0.074
  -0.02895940 -0.00032604  0.02942872       0.074
   0.00000000  0.02909438  0.03019994       0.074
   0.02895940  0.02909438  0.03019994       0.074
  -0.02895940  0.02909438  0.03019994       0.074
   0.00000000 -0.02974646  0.02865750       0.074
   0.02895940 -0.02974646  0.02865750       0.074
  -0.02895940 -0.02974646  0.02865750       0.074
 
 k-points in reciprocal lattice and weights: # No comment                            
   0.00000000  0.00000000  0.00000000       0.037
   0.33333333  0.00000000  0.00000000       0.074
   0.00000000  0.33333333  0.00000000       0.074
   0.33333333  0.33333333  0.00000000       0.074
  -0.33333333  0.33333333  0.00000000       0.074
   0.00000000  0.00000000  0.33333333       0.074
   0.33333333  0.00000000  0.33333333       0.074
  -0.33333333  0.00000000  0.33333333       0.074
   0.00000000  0.33333333  0.33333333       0.074
   0.33333333  0.33333333  0.33333333       0.074
  -0.33333333  0.33333333  0.33333333       0.074
   0.00000000 -0.33333333  0.33333333       0.074
   0.33333333 -0.33333333  0.33333333       0.074
  -0.33333333 -0.33333333  0.33333333       0.074
 
 position of ions in fractional coordinates (direct lattice) 
   0.10513295  0.25000000  0.00000000
   0.43846628  0.25000000  0.00000000
   0.77179961  0.25000000  0.00000000
   0.10513295  0.75000000  0.00000000
   0.43846628  0.75000000  0.00000000
   0.77179961  0.75000000  0.00000000
   0.10513295  0.25000000  0.50000000
   0.43846628  0.25000000  0.50000000
   0.77179961  0.25000000  0.50000000
   0.10513295  0.75000000  0.50000000
   0.43846628  0.75000000  0.50000000
   0.77179961  0.75000000  0.50000000
   0.10513295  0.00000000  0.25000000
   0.43846628  0.00000000  0.25000000
   0.77179961  0.00000000  0.25000000
   0.10513295  0.50000000  0.25000000
   0.43846628  0.50000000  0.25000000
   0.77179961  0.50000000  0.25000000
   0.10513295  0.00000000  0.75000000
   0.43846628  0.00000000  0.75000000
   0.77179961  0.00000000  0.75000000
   0.10513295  0.50000000  0.75000000
   0.43846628  0.50000000  0.75000000
   0.77179961  0.50000000  0.75000000
   0.10614906  0.12527662  0.37472338
   0.43948239  0.12527662  0.37472338
   0.77281572  0.12527662  0.37472338
   0.10614906  0.62527662  0.37472338
   0.43948239  0.62527662  0.37472338
   0.77281572  0.62527662  0.37472338
   0.10614906  0.12527662  0.87472338
   0.43948239  0.12527662  0.87472338
   0.77281572  0.12527662  0.87472338
   0.10614906  0.62527662  0.87472338
   0.43948239  0.62527662  0.87472338
   0.77281572  0.62527662  0.87472338
   0.10614906  0.37472338  0.12527662
   0.43948239  0.37472338  0.12527662
   0.77281572  0.37472338  0.12527662
   0.10614906  0.87472338  0.12527662
   0.43948239  0.87472338  0.12527662
   0.77281572  0.87472338  0.12527662
   0.10614906  0.37472338  0.62527662
   0.43948239  0.37472338  0.62527662
   0.77281572  0.37472338  0.62527662
   0.10614906  0.87472338  0.62527662
   0.43948239  0.87472338  0.62527662
   0.77281572  0.87472338  0.62527662
   0.27366763  0.11809471  0.11809471
   0.60613218  0.11809471  0.11809471
   0.93946551  0.11809471  0.11809471
   0.27279884  0.61809471  0.11809471
   0.60613218  0.61809471  0.11809471
   0.93946551  0.61809471  0.11809471
   0.27279884  0.11809471  0.61809471
   0.60613218  0.11809471  0.61809471
   0.93946551  0.11809471  0.61809471
   0.27279884  0.61809471  0.61809471
   0.60613218  0.61809471  0.61809471
   0.93946551  0.61809471  0.61809471
   0.27279884  0.38190529  0.38190529
   0.60613218  0.38190529  0.38190529
   0.93946551  0.38190529  0.38190529
   0.27279884  0.88190529  0.38190529
   0.60613218  0.88190529  0.38190529
   0.93946551  0.88190529  0.38190529
   0.27279884  0.38190529  0.88190529
   0.60613218  0.38190529  0.88190529
   0.93946551  0.38190529  0.88190529
   0.27279884  0.88190529  0.88190529
   0.60613218  0.88190529  0.88190529
   0.93946551  0.88190529  0.88190529
   0.27287151  0.33907427  0.16092573
   0.60620484  0.33907427  0.16092573
   0.93953818  0.33907427  0.16092573
   0.27287151  0.83907427  0.16092573
   0.60620484  0.83907427  0.16092573
   0.93953818  0.83907427  0.16092573
   0.27287151  0.33907427  0.66092573
   0.60620484  0.33907427  0.66092573
   0.93953818  0.33907427  0.66092573
   0.27287151  0.83907427  0.66092573
   0.60620484  0.83907427  0.66092573
   0.93953818  0.83907427  0.66092573
   0.27287151  0.16092573  0.33907427
   0.60620484  0.16092573  0.33907427
   0.93953818  0.16092573  0.33907427
   0.27287151  0.66092573  0.33907427
   0.60620484  0.66092573  0.33907427
   0.93953818  0.66092573  0.33907427
   0.27287151  0.16092573  0.83907427
   0.60620484  0.16092573  0.83907427
   0.93953818  0.16092573  0.83907427
   0.27287151  0.66092573  0.83907427
   0.60620484  0.66092573  0.83907427
   0.93953818  0.66092573  0.83907427
   0.10731129  0.00000000  0.00000000
   0.44064462  0.00000000  0.00000000
   0.77397796  0.00000000  0.00000000
   0.10731129  0.50000000  0.00000000
   0.44064462  0.50000000  0.00000000
   0.77397796  0.50000000  0.00000000
   0.10731129  0.00000000  0.50000000
   0.44064462  0.00000000  0.50000000
   0.77397796  0.00000000  0.50000000
   0.10731129  0.50000000  0.50000000
   0.44064462  0.50000000  0.50000000
   0.77397796  0.50000000  0.50000000
 
 position of ions in cartesian coordinates  (Angst):
   1.21011895  2.83167729  0.03137235
   5.04690844  2.83167729  0.03137235
   8.88369793  2.83167729  0.03137235
   1.21011895  8.49503187  0.09411705
   5.04690844  8.49503187  0.09411705
   8.88369793  8.49503187  0.09411705
   1.21011895  2.68326153  5.69312957
   5.04690844  2.68326153  5.69312957
   8.88369793  2.68326153  5.69312957
   1.21011895  8.34661611  5.75587427
   5.04690844  8.34661611  5.75587427
   8.88369793  8.34661611  5.75587427
   1.21011895 -0.07420788  2.83087861
   5.04690844 -0.07420788  2.83087861
   8.88369793 -0.07420788  2.83087861
   1.21011895  5.58914670  2.89362331
   5.04690844  5.58914670  2.89362331
   8.88369793  5.58914670  2.89362331
   1.21011895 -0.22262364  8.49263583
   5.04690844 -0.22262364  8.49263583
   8.88369793 -0.22262364  8.49263583
   1.21011895  5.44073094  8.55538053
   5.04690844  5.44073094  8.55538053
   8.88369793  5.44073094  8.55538053
   1.22181476  1.30774219  4.25890644
   5.05860424  1.30774219  4.25890644
   8.89539373  1.30774219  4.25890644
   1.22181476  6.97109677  4.32165114
   5.05860424  6.97109677  4.32165114
   8.89539373  6.97109677  4.32165114
   1.22181476  1.15932643  9.92066366
   5.05860424  1.15932643  9.92066366
   8.89539373  1.15932643  9.92066366
   1.22181476  6.82268101  9.98340836
   5.05860424  6.82268101  9.98340836
   8.89539373  6.82268101  9.98340836
   1.22181476  4.20719663  1.46559548
   5.05860424  4.20719663  1.46559548
   8.89539373  4.20719663  1.46559548
   1.22181476  9.87055121  1.52834018
   5.05860424  9.87055121  1.52834018
   8.89539373  9.87055121  1.52834018
   1.22181476  4.05878087  7.12735270
   5.05860424  4.05878087  7.12735270
   8.89539373  4.05878087  7.12735270
   1.22181476  9.72213545  7.19009740
   5.05860424  9.72213545  7.19009740
   8.89539373  9.72213545  7.19009740
   3.15001521  1.30257026  1.35206685
   6.97680470  1.30257026  1.35206685
  10.81359418  1.30257026  1.35206685
   3.14001520  6.96592484  1.41481155
   6.97680470  6.96592484  1.41481155
  10.81359418  6.96592484  1.41481155
   3.14001520  1.15415450  7.01382407
   6.97680470  1.15415450  7.01382407
  10.81359418  1.15415450  7.01382407
   3.14001520  6.81750908  7.07656877
   6.97680470  6.81750908  7.07656877
  10.81359418  6.81750908  7.07656877
   3.14001520  4.21236856  4.37243507
   6.97680470  4.21236856  4.37243507
  10.81359418  4.21236856  4.37243507
   3.14001520  9.87572314  4.43517977
   6.97680470  9.87572314  4.43517977
  10.81359418  9.87572314  4.43517977
   3.14001520  4.06395280 10.03419229
   6.97680470  4.06395280 10.03419229
  10.81359418  4.06395280 10.03419229
   3.14001520  9.72730738 10.09693699
   6.97680470  9.72730738 10.09693699
  10.81359418  9.72730738 10.09693699
   3.14085163  3.79282781  1.86479505
   6.97764111  3.79282781  1.86479505
  10.81443061  3.79282781  1.86479505
   3.14085163  9.45618239  1.92753975
   6.97764111  9.45618239  1.92753975
  10.81443061  9.45618239  1.92753975
   3.14085163  3.64441205  7.52655227
   6.97764111  3.64441205  7.52655227
  10.81443061  3.64441205  7.52655227
   3.14085163  9.30776663  7.58929697
   6.97764111  9.30776663  7.58929697
  10.81443061  9.30776663  7.58929697
   3.14085163  1.72211101  3.85970687
   6.97764111  1.72211101  3.85970687
  10.81443061  1.72211101  3.85970687
   3.14085163  7.38546559  3.92245157
   6.97764111  7.38546559  3.92245157
  10.81443061  7.38546559  3.92245157
   3.14085163  1.57369525  9.52146409
   6.97764111  1.57369525  9.52146409
  10.81443061  1.57369525  9.52146409
   3.14085163  7.23704983  9.58420879
   6.97764111  7.23704983  9.58420879
  10.81443061  7.23704983  9.58420879
   1.23519249  0.00000000  0.00000000
   5.07198198  0.00000000  0.00000000
   8.90877147  0.00000000  0.00000000
   1.23519249  5.66335458  0.06274470
   5.07198198  5.66335458  0.06274470
   8.90877147  5.66335458  0.06274470
   1.23519249 -0.14841576  5.66175722
   5.07198198 -0.14841576  5.66175722
   8.90877147 -0.14841576  5.66175722
   1.23519249  5.51493882  5.72450192
   5.07198198  5.51493882  5.72450192
   8.90877147  5.51493882  5.72450192
 


--------------------------------------------------------------------------------------------------------


 k-point  1 :   0.0000 0.0000 0.0000  plane waves:   55639
 k-point  2 :   0.3333 0.0000 0.0000  plane waves:   55556
 k-point  3 :   0.0000 0.3333 0.0000  plane waves:   55574
 k-point  4 :   0.3333 0.3333 0.0000  plane waves:   55601
 k-point  5 :  -0.3333 0.3333 0.0000  plane waves:   55601
 k-point  6 :   0.0000 0.0000 0.3333  plane waves:   55574
 k-point  7 :   0.3333 0.0000 0.3333  plane waves:   55601
 k-point  8 :  -0.3333 0.0000 0.3333  plane waves:   55601
 k-point  9 :   0.0000 0.3333 0.3333  plane waves:   55595
 k-point 10 :   0.3333 0.3333 0.3333  plane waves:   55583
 k-point 11 :  -0.3333 0.3333 0.3333  plane waves:   55583
 k-point 12 :   0.0000-0.3333 0.3333  plane waves:   55498
 k-point 13 :   0.3333-0.3333 0.3333  plane waves:   55538
 k-point 14 :  -0.3333-0.3333 0.3333  plane waves:   55538

 maximum and minimum number of plane-waves per node :      5597     5522

 maximum number of plane-waves:     55639
 maximum index in each direction: 
   IXMAX=   24   IYMAX=   23   IZMAX=   23
   IXMIN=  -24   IYMIN=  -23   IZMIN=  -23


 parallel 3D FFT for wavefunctions:
    minimum data exchange during FFTs selected (reduces bandwidth)
 parallel 3D FFT for charge:
    minimum data exchange during FFTs selected (reduces bandwidth)


 total amount of memory used by VASP MPI-rank0  1877671. kBytes
=======================================================================

   base      :      30000. kBytes
   nonl-proj :      54531. kBytes
   fftplans  :     107775. kBytes
   grid      :      78796. kBytes
   one-center:        342. kBytes
   wavefun   :    1606227. kBytes
 
     INWAV:  cpu time    0.0000: real time    0.0000
 Broyden mixing: mesh for mixing (old mesh)
   NGX = 47   NGY = 47   NGZ = 47
  (NGX  =192   NGY  =192   NGZ  =192)
  gives a total of 103823 points

 initial charge density was supplied:
 charge density of overlapping atoms calculated
 number of electron     864.0000000 magnetization     223.2000000
 keeping initial charge density in first step


--------------------------------------------------------------------------------------------------------


 Maximum index for augmentation-charges        15710 (set IRDMAX)


--------------------------------------------------------------------------------------------------------


 First call to EWALD:  gamma=   0.156
 Maximum number of real-space cells 3x 3x 3
 Maximum number of reciprocal cells 3x 3x 3

    FEWALD:  cpu time    0.0069: real time    0.0069


--------------------------------------- Iteration      1(   1)  ---------------------------------------


    POTLOK:  cpu time    1.1748: real time    1.1783
    SETDIJ:  cpu time    2.4107: real time    2.4165
     EDDAV:  cpu time  408.0817: real time  409.1158
       DOS:  cpu time    0.0152: real time    0.0152
    --------------------------------------------
      LOOP:  cpu time  411.6823: real time  412.7258

 eigenvalue-minimisations  : 36200
 total energy-change (2. order) : 0.1287651E+05  (-0.4717628E+05)
 number of electron     864.0000000 magnetization     223.2000000
 augmentation part      864.0000000 magnetization     223.2000000

 Free energy of the ion-electron system (eV)
  ---------------------------------------------------
  alpha Z        PSCENC =      2671.99667194
  Ewald energy   TEWEN  =    -65588.32774799
  -Hartree energ DENC   =    -36916.02860660
  -exchange      EXHF   =         0.00000000
  -V(xc)+E(xc)   XCENC  =      3880.55386772
  PAW double counting   =     87409.98379221   -90654.48884115
  entropy T*S    EENTRO =        -0.02775111
  eigenvalues    EBANDS =      1718.53614068
  atomic energy  EATOM  =    110354.31518496
  Solvation  Ediel_sol  =         0.00000000
  ---------------------------------------------------
  free energy    TOTEN  =     12876.51271068 eV

  energy without entropy =    12876.54046178  energy(sigma->0) =    12876.52658623


--------------------------------------------------------------------------------------------------------




--------------------------------------- Iteration      1(   2)  ---------------------------------------


     EDDAV:  cpu time  398.1255: real time  399.1456
       DOS:  cpu time    0.0148: real time    0.0149
    --------------------------------------------
      LOOP:  cpu time  398.1403: real time  399.1605

 eigenvalue-minimisations  : 35280
 total energy-change (2. order) :-0.1134367E+05  (-0.1045660E+05)
 number of electron     864.0000000 magnetization     223.2000000
 augmentation part      864.0000000 magnetization     223.2000000

 Free energy of the ion-electron system (eV)
  ---------------------------------------------------
  alpha Z        PSCENC =      2671.99667194
  Ewald energy   TEWEN  =    -65588.32774799
  -Hartree energ DENC   =    -36916.02860660
  -exchange      EXHF   =         0.00000000
  -V(xc)+E(xc)   XCENC  =      3880.55386772
  PAW double counting   =     87409.98379221   -90654.48884115
  entropy T*S    EENTRO =        -0.07243972
  eigenvalues    EBANDS =     -9625.08812517
  atomic energy  EATOM  =    110354.31518496
  Solvation  Ediel_sol  =         0.00000000
  ---------------------------------------------------
  free energy    TOTEN  =      1532.84375621 eV

  energy without entropy =     1532.91619594  energy(sigma->0) =     1532.87997607


--------------------------------------------------------------------------------------------------------




--------------------------------------- Iteration      1(   3)  ---------------------------------------


     EDDAV:  cpu time  418.8607: real time  419.9330
       DOS:  cpu time    0.0143: real time    0.0143
    --------------------------------------------
      LOOP:  cpu time  418.8749: real time  419.9472

 eigenvalue-minimisations  : 37416
 total energy-change (2. order) :-0.1966267E+04  (-0.1789680E+04)
 number of electron     864.0000000 magnetization     223.2000000
 augmentation part      864.0000000 magnetization     223.2000000

 Free energy of the ion-electron system (eV)
  ---------------------------------------------------
  alpha Z        PSCENC =      2671.99667194
  Ewald energy   TEWEN  =    -65588.32774799
  -Hartree energ DENC   =    -36916.02860660
  -exchange      EXHF   =         0.00000000
  -V(xc)+E(xc)   XCENC  =      3880.55386772
  PAW double counting   =     87409.98379221   -90654.48884115
  entropy T*S    EENTRO =        -0.06909690
  eigenvalues    EBANDS =    -11591.35807554
  atomic energy  EATOM  =    110354.31518496
  Solvation  Ediel_sol  =         0.00000000
  ---------------------------------------------------
  free energy    TOTEN  =      -433.42285134 eV

  energy without entropy =     -433.35375444  energy(sigma->0) =     -433.38830289


--------------------------------------------------------------------------------------------------------




--------------------------------------- Iteration      1(   4)  ---------------------------------------


     EDDAV:  cpu time  473.9148: real time  475.0937
       DOS:  cpu time    0.0158: real time    0.0158
    --------------------------------------------
      LOOP:  cpu time  473.9305: real time  475.1095

 eigenvalue-minimisations  : 43720
 total energy-change (2. order) :-0.2134697E+03  (-0.2080822E+03)
 number of electron     864.0000000 magnetization     223.2000000
 augmentation part      864.0000000 magnetization     223.2000000

 Free energy of the ion-electron system (eV)
  ---------------------------------------------------
  alpha Z        PSCENC =      2671.99667194
  Ewald energy   TEWEN  =    -65588.32774799
  -Hartree energ DENC   =    -36916.02860660
  -exchange      EXHF   =         0.00000000
  -V(xc)+E(xc)   XCENC  =      3880.55386772
  PAW double counting   =     87409.98379221   -90654.48884115
  entropy T*S    EENTRO =        -0.06766455
  eigenvalues    EBANDS =    -11804.82922872
  atomic energy  EATOM  =    110354.31518496
  Solvation  Ediel_sol  =         0.00000000
  ---------------------------------------------------
  free energy    TOTEN  =      -646.89257216 eV

  energy without entropy =     -646.82490761  energy(sigma->0) =     -646.85873989


--------------------------------------------------------------------------------------------------------




--------------------------------------- Iteration      1(   5)  ---------------------------------------


     EDDAV:  cpu time  620.2947: real time  621.8679
       DOS:  cpu time    0.0157: real time    0.0158
    CHARGE:  cpu time    9.4703: real time    9.4944
    MIXING:  cpu time    0.0300: real time    0.0301
    --------------------------------------------
      LOOP:  cpu time  629.8108: real time  631.4082

 eigenvalue-minimisations  : 60616
 total energy-change (2. order) :-0.1786335E+02  (-0.1743029E+02)
 number of electron     864.0000022 magnetization     198.3284657
 augmentation part      303.8163323 magnetization     145.6995538

 Broyden mixing:
  rms(total) = 0.10892E+02    rms(broyden)= 0.10891E+02
  rms(prec ) = 0.12523E+02
  weight for this iteration     100.00

 Free energy of the ion-electron system (eV)
  ---------------------------------------------------
  alpha Z        PSCENC =      2671.99667194
  Ewald energy   TEWEN  =    -65588.32774799
  -Hartree energ DENC   =    -36916.02860660
  -exchange      EXHF   =         0.00000000
  -V(xc)+E(xc)   XCENC  =      3880.55386772
  PAW double counting   =     87409.98379221   -90654.48884115
  entropy T*S    EENTRO =        -0.08646936
  eigenvalues    EBANDS =    -11822.67377443
  atomic energy  EATOM  =    110354.31518496
  Solvation  Ediel_sol  =         0.00000000
  ---------------------------------------------------
  free energy    TOTEN  =      -664.75592268 eV

  energy without entropy =     -664.66945333  energy(sigma->0) =     -664.71268801


--------------------------------------------------------------------------------------------------------




--------------------------------------- Iteration      1(   6)  ---------------------------------------


    POTLOK:  cpu time    1.0378: real time    1.0418
    SETDIJ:  cpu time    2.4226: real time    2.4290
     EDDAV:  cpu time  471.8728: real time  473.0654
       DOS:  cpu time    0.0162: real time    0.0162
    CHARGE:  cpu time    9.5377: real time    9.5605
    MIXING:  cpu time    0.0348: real time    0.0349
    --------------------------------------------
      LOOP:  cpu time  484.9219: real time  486.1478

 eigenvalue-minimisations  : 43472
 total energy-change (2. order) : 0.1058419E+03  (-0.6983069E+02)
 number of electron     864.0000024 magnetization     187.4943837
 augmentation part      336.6714127 magnetization     137.8308334

 Broyden mixing:
  rms(total) = 0.11185E+02    rms(broyden)= 0.11185E+02
  rms(prec ) = 0.11591E+02
  weight for this iteration     100.00

 eigenvalues of (default mixing * dielectric matrix)
  average eigenvalue GAMMA=   0.3839
  0.3839

 Free energy of the ion-electron system (eV)
  ---------------------------------------------------
  alpha Z        PSCENC =      2671.99667194
  Ewald energy   TEWEN  =    -65588.32774799
  -Hartree energ DENC   =    -35226.05927529
  -exchange      EXHF   =         0.00000000
  -V(xc)+E(xc)   XCENC  =      3831.94452073
  PAW double counting   =     90328.63996199   -93321.00244322
  entropy T*S    EENTRO =        -0.08573144
  eigenvalues    EBANDS =    -13610.33520407
  atomic energy  EATOM  =    110354.31518496
  Solvation  Ediel_sol  =         0.00000000
  ---------------------------------------------------
  free energy    TOTEN  =      -558.91406239 eV

  energy without entropy =     -558.82833095  energy(sigma->0) =     -558.87119667


--------------------------------------------------------------------------------------------------------




--------------------------------------- Iteration      1(   7)  ---------------------------------------


    POTLOK:  cpu time    1.0762: real time    1.0801
    SETDIJ:  cpu time    2.4473: real time    2.4534
     EDDAV:  cpu time  445.4632: real time  446.6198
       DOS:  cpu time    0.0158: real time    0.0158
    CHARGE:  cpu time    9.0831: real time    9.1049
    MIXING:  cpu time    0.0294: real time    0.0294
    --------------------------------------------
      LOOP:  cpu time  458.1150: real time  459.3034

 eigenvalue-minimisations  : 40424
 total energy-change (2. order) :-0.2295203E+02  (-0.1768818E+02)
 number of electron     864.0000023 magnetization     177.2389798
 augmentation part      328.7045870 magnetization     128.2191541

 Broyden mixing:
  rms(total) = 0.66630E+01    rms(broyden)= 0.66627E+01
  rms(prec ) = 0.69069E+01
  weight for this iteration     100.00

 eigenvalues of (default mixing * dielectric matrix)
  average eigenvalue GAMMA=   0.5876
  0.5876  0.5876

 Free energy of the ion-electron system (eV)
  ---------------------------------------------------
  alpha Z        PSCENC =      2671.99667194
  Ewald energy   TEWEN  =    -65588.32774799
  -Hartree energ DENC   =    -35711.92086659
  -exchange      EXHF   =         0.00000000
  -V(xc)+E(xc)   XCENC  =      3837.00544030
  PAW double counting   =     94502.29970057   -97712.65560254
  entropy T*S    EENTRO =        -0.03787193
  eigenvalues    EBANDS =    -12934.54100026
  atomic energy  EATOM  =    110354.31518496
  Solvation  Ediel_sol  =         0.00000000
  ---------------------------------------------------
  free energy    TOTEN  =      -581.86609155 eV

  energy without entropy =     -581.82821962  energy(sigma->0) =     -581.84715558


--------------------------------------------------------------------------------------------------------




--------------------------------------- Iteration      1(   8)  ---------------------------------------


    POTLOK:  cpu time    1.0682: real time    1.0722
    SETDIJ:  cpu time    2.3973: real time    2.4031
     EDDAV:  cpu time  462.3147: real time  463.4486
       DOS:  cpu time    0.0047: real time    0.0047
    CHARGE:  cpu time    9.4427: real time    9.4664
    MIXING:  cpu time    0.0376: real time    0.0377
    --------------------------------------------
      LOOP:  cpu time  475.2652: real time  476.4327

 eigenvalue-minimisations  : 42378
 total energy-change (2. order) :-0.8384216E+01  (-0.5843833E+01)
 number of electron     864.0000023 magnetization     164.2321545
 augmentation part      325.4377863 magnetization     115.1252410

 Broyden mixing:
  rms(total) = 0.43576E+01    rms(broyden)= 0.43574E+01
  rms(prec ) = 0.44354E+01
  weight for this iteration     100.00

 eigenvalues of (default mixing * dielectric matrix)
  average eigenvalue GAMMA=   0.6220
  0.6818  0.6818  0.5024

 Free energy of the ion-electron system (eV)
  ---------------------------------------------------
  alpha Z        PSCENC =      2671.99667194
  Ewald energy   TEWEN  =    -65588.32774799
  -Hartree energ DENC   =    -35852.65771539
  -exchange      EXHF   =         0.00000000
  -V(xc)+E(xc)   XCENC  =      3839.44127976
  PAW double counting   =     98050.79809402  -101313.72255270
  entropy T*S    EENTRO =        -0.00000000
  eigenvalues    EBANDS =    -12752.09352200
  atomic energy  EATOM  =    110354.31518496
  Solvation  Ediel_sol  =         0.00000000
  ---------------------------------------------------
  free energy    TOTEN  =      -590.25030740 eV

  energy without entropy =     -590.25030740  energy(sigma->0) =     -590.25030740


--------------------------------------------------------------------------------------------------------




--------------------------------------- Iteration      1(   9)  ---------------------------------------


    POTLOK:  cpu time    1.0653: real time    1.0693
    SETDIJ:  cpu time    2.3922: real time    2.3987
     EDDAV:  cpu time  458.9169: real time  460.0596
       DOS:  cpu time    0.0053: real time    0.0054
    CHARGE:  cpu time    9.7522: real time    9.7757
    MIXING:  cpu time    0.0415: real time    0.0417
    --------------------------------------------
      LOOP:  cpu time  472.1734: real time  473.3503

 eigenvalue-minimisations  : 42000
 total energy-change (2. order) :-0.7599130E+01  (-0.1523565E+01)
 number of electron     864.0000022 magnetization     150.8948669
 augmentation part      324.6387326 magnetization     101.8025501

 Broyden mixing:
  rms(total) = 0.25793E+01    rms(broyden)= 0.25792E+01
  rms(prec ) = 0.26398E+01
  weight for this iteration     100.00

 eigenvalues of (default mixing * dielectric matrix)
  average eigenvalue GAMMA=   0.8795
  1.7834  0.7271  0.5038  0.5038

 Free energy of the ion-electron system (eV)
  ---------------------------------------------------
  alpha Z        PSCENC =      2671.99667194
  Ewald energy   TEWEN  =    -65588.32774799
  -Hartree energ DENC   =    -35888.99643396
  -exchange      EXHF   =         0.00000000
  -V(xc)+E(xc)   XCENC  =      3841.30661145
  PAW double counting   =    101675.42256116  -104969.92052997
  entropy T*S    EENTRO =        -0.00000000
  eigenvalues    EBANDS =    -12693.64575492
  atomic energy  EATOM  =    110354.31518496
  Solvation  Ediel_sol  =         0.00000000
  ---------------------------------------------------
  free energy    TOTEN  =      -597.84943733 eV

  energy without entropy =     -597.84943733  energy(sigma->0) =     -597.84943733


--------------------------------------------------------------------------------------------------------




--------------------------------------- Iteration      1(  10)  ---------------------------------------


    POTLOK:  cpu time    1.0941: real time    1.0974
    SETDIJ:  cpu time    2.3992: real time    2.4049
     EDDAV:  cpu time  485.0023: real time  486.1952
       DOS:  cpu time    0.0046: real time    0.0046
    CHARGE:  cpu time    9.0165: real time    9.0381
    MIXING:  cpu time    0.0361: real time    0.0362
    --------------------------------------------
      LOOP:  cpu time  497.5529: real time  498.7764

 eigenvalue-minimisations  : 44704
 total energy-change (2. order) :-0.3208101E+01  (-0.2578519E+00)
 number of electron     864.0000022 magnetization     146.3150552
 augmentation part      324.3804297 magnetization      97.2444276

 Broyden mixing:
  rms(total) = 0.85698E+00    rms(broyden)= 0.85697E+00
  rms(prec ) = 0.89109E+00
  weight for this iteration     100.00

 eigenvalues of (default mixing * dielectric matrix)
  average eigenvalue GAMMA=   0.9828
  2.2411  0.8584  0.6621  0.6621  0.4903

 Free energy of the ion-electron system (eV)
  ---------------------------------------------------
  alpha Z        PSCENC =      2671.99667194
  Ewald energy   TEWEN  =    -65588.32774799
  -Hartree energ DENC   =    -35904.95355123
  -exchange      EXHF   =         0.00000000
  -V(xc)+E(xc)   XCENC  =      3842.93800976
  PAW double counting   =    105164.25705375  -108494.38009059
  entropy T*S    EENTRO =        -0.00000000
  eigenvalues    EBANDS =    -12646.90306937
  atomic energy  EATOM  =    110354.31518496
  Solvation  Ediel_sol  =         0.00000000
  ---------------------------------------------------
  free energy    TOTEN  =      -601.05753877 eV

  energy without entropy =     -601.05753877  energy(sigma->0) =     -601.05753877


--------------------------------------------------------------------------------------------------------




--------------------------------------- Iteration      1(  11)  ---------------------------------------


    POTLOK:  cpu time    1.0695: real time    1.0726
    SETDIJ:  cpu time    2.3393: real time    2.3448
     EDDAV:  cpu time  487.3325: real time  488.5979
       DOS:  cpu time    0.0046: real time    0.0046
    CHARGE:  cpu time    9.6904: real time    9.7401
    MIXING:  cpu time    0.0504: real time    0.0506
    --------------------------------------------
      LOOP:  cpu time  500.4867: real time  501.8106

 eigenvalue-minimisations  : 45192
 total energy-change (2. order) :-0.8058548E+00  (-0.1134637E+00)
 number of electron     864.0000022 magnetization     145.4543263
 augmentation part      324.5674166 magnetization      96.4922860

 Broyden mixing:
  rms(total) = 0.24187E+00    rms(broyden)= 0.24184E+00
  rms(prec ) = 0.26543E+00
  weight for this iteration     100.00

 eigenvalues of (default mixing * dielectric matrix)
  average eigenvalue GAMMA=   0.9974
  2.3581  1.1535  0.6931  0.6931  0.5433  0.5433

 Free energy of the ion-electron system (eV)
  ---------------------------------------------------
  alpha Z        PSCENC =      2671.99667194
  Ewald energy   TEWEN  =    -65588.32774799
  -Hartree energ DENC   =    -35892.69640469
  -exchange      EXHF   =         0.00000000
  -V(xc)+E(xc)   XCENC  =      3841.94916155
  PAW double counting   =    106018.89587587  -109359.54801589
  entropy T*S    EENTRO =        -0.00000000
  eigenvalues    EBANDS =    -12648.44811936
  atomic energy  EATOM  =    110354.31518496
  Solvation  Ediel_sol  =         0.00000000
  ---------------------------------------------------
  free energy    TOTEN  =      -601.86339361 eV

  energy without entropy =     -601.86339361  energy(sigma->0) =     -601.86339361


--------------------------------------------------------------------------------------------------------




--------------------------------------- Iteration      1(  12)  ---------------------------------------


    POTLOK:  cpu time    1.1040: real time    1.1073
    SETDIJ:  cpu time    2.2047: real time    2.2101
     EDDAV:  cpu time  480.6466: real time  481.8352
       DOS:  cpu time    0.0046: real time    0.0046
    CHARGE:  cpu time    8.8792: real time    8.9004
    MIXING:  cpu time    0.0315: real time    0.0316
    --------------------------------------------
      LOOP:  cpu time  492.8705: real time  494.0891

 eigenvalue-minimisations  : 44448
 total energy-change (2. order) :-0.5969821E-01  (-0.2633402E-01)
 number of electron     864.0000022 magnetization     144.4665776
 augmentation part      324.6277979 magnetization      95.5830133

 Broyden mixing:
  rms(total) = 0.12147E+00    rms(broyden)= 0.12146E+00
  rms(prec ) = 0.12790E+00
  weight for this iteration     100.00

 eigenvalues of (default mixing * dielectric matrix)
  average eigenvalue GAMMA=   1.0093
  2.4826  1.1442  0.8911  0.5261  0.6918  0.6918  0.6374

 Free energy of the ion-electron system (eV)
  ---------------------------------------------------
  alpha Z        PSCENC =      2671.99667194
  Ewald energy   TEWEN  =    -65588.32774799
  -Hartree energ DENC   =    -35888.81716792
  -exchange      EXHF   =         0.00000000
  -V(xc)+E(xc)   XCENC  =      3841.76004652
  PAW double counting   =    105993.60553335  -109331.36495688
  entropy T*S    EENTRO =        -0.00000000
  eigenvalues    EBANDS =    -12655.09065580
  atomic energy  EATOM  =    110354.31518496
  Solvation  Ediel_sol  =         0.00000000
  ---------------------------------------------------
  free energy    TOTEN  =      -601.92309182 eV

  energy without entropy =     -601.92309182  energy(sigma->0) =     -601.92309182


--------------------------------------------------------------------------------------------------------




--------------------------------------- Iteration      1(  13)  ---------------------------------------


    POTLOK:  cpu time    1.0677: real time    1.0710
    SETDIJ:  cpu time    2.1626: real time    2.1680
     EDDAV:  cpu time  479.0238: real time  480.2175
       DOS:  cpu time    0.0047: real time    0.0047
    CHARGE:  cpu time    8.8195: real time    8.8405
    MIXING:  cpu time    0.0300: real time    0.0301
    --------------------------------------------
      LOOP:  cpu time  491.1083: real time  492.3318

 eigenvalue-minimisations  : 44312
 total energy-change (2. order) :-0.3020237E-01  (-0.1117545E-01)
 number of electron     864.0000022 magnetization     144.1818134
 augmentation part      324.6346940 magnetization      95.3405347

 Broyden mixing:
  rms(total) = 0.66958E-01    rms(broyden)= 0.66951E-01
  rms(prec ) = 0.69741E-01
  weight for this iteration     100.00

 eigenvalues of (default mixing * dielectric matrix)
  average eigenvalue GAMMA=   1.0479
  2.5554  1.6018  0.9708  0.5181  0.6153  0.6153  0.7534  0.7534

 Free energy of the ion-electron system (eV)
  ---------------------------------------------------
  alpha Z        PSCENC =      2671.99667194
  Ewald energy   TEWEN  =    -65588.32774799
  -Hartree energ DENC   =    -35892.07982024
  -exchange      EXHF   =         0.00000000
  -V(xc)+E(xc)   XCENC  =      3841.86744691
  PAW double counting   =    106068.96487512  -109405.62663073
  entropy T*S    EENTRO =        -0.00000000
  eigenvalues    EBANDS =    -12653.06327416
  atomic energy  EATOM  =    110354.31518496
  Solvation  Ediel_sol  =         0.00000000
  ---------------------------------------------------
  free energy    TOTEN  =      -601.95329419 eV

  energy without entropy =     -601.95329419  energy(sigma->0) =     -601.95329419


--------------------------------------------------------------------------------------------------------




--------------------------------------- Iteration      1(  14)  ---------------------------------------


    POTLOK:  cpu time    1.0682: real time    1.0711
    SETDIJ:  cpu time    2.1613: real time    2.1666
     EDDAV:  cpu time  477.9950: real time  479.2004
       DOS:  cpu time    0.0047: real time    0.0047
    CHARGE:  cpu time    9.3361: real time    9.3583
    MIXING:  cpu time    0.1406: real time    0.1410
    --------------------------------------------
      LOOP:  cpu time  490.7061: real time  491.9421

 eigenvalue-minimisations  : 44136
 total energy-change (2. order) :-0.4428684E-02  (-0.1643613E-02)
 number of electron     864.0000022 magnetization     144.1619801
 augmentation part      324.6324836 magnetization      95.3313286

 Broyden mixing:
  rms(total) = 0.50773E-01    rms(broyden)= 0.50770E-01
  rms(prec ) = 0.51672E-01
  weight for this iteration     100.00

 eigenvalues of (default mixing * dielectric matrix)
  average eigenvalue GAMMA=   1.0408
  2.5011  1.7677  0.9591  0.9591  0.7024  0.7024  0.5169  0.6293  0.6293

 Free energy of the ion-electron system (eV)
  ---------------------------------------------------
  alpha Z        PSCENC =      2671.99667194
  Ewald energy   TEWEN  =    -65588.32774799
  -Hartree energ DENC   =    -35895.55808627
  -exchange      EXHF   =         0.00000000
  -V(xc)+E(xc)   XCENC  =      3841.96522139
  PAW double counting   =    106043.21146435  -109378.81491055
  entropy T*S    EENTRO =        -0.00000000
  eigenvalues    EBANDS =    -12650.74552071
  atomic energy  EATOM  =    110354.31518496
  Solvation  Ediel_sol  =         0.00000000
  ---------------------------------------------------
  free energy    TOTEN  =      -601.95772287 eV

  energy without entropy =     -601.95772287  energy(sigma->0) =     -601.95772287


--------------------------------------------------------------------------------------------------------




--------------------------------------- Iteration      1(  15)  ---------------------------------------


    POTLOK:  cpu time    1.0111: real time    1.0139
    SETDIJ:  cpu time    2.4922: real time    2.4982
     EDDAV:  cpu time  527.0817: real time  528.4310
       DOS:  cpu time    0.0046: real time    0.0046
    CHARGE:  cpu time    8.9155: real time    8.9367
    MIXING:  cpu time    0.0444: real time    0.0445
    --------------------------------------------
      LOOP:  cpu time  539.5493: real time  540.9288

 eigenvalue-minimisations  : 49968
 total energy-change (2. order) :-0.5995325E-03  (-0.1315852E-03)
 number of electron     864.0000022 magnetization     144.0006402
 augmentation part      324.6272999 magnetization      95.1750065

 Broyden mixing:
  rms(total) = 0.33107E-01    rms(broyden)= 0.33107E-01
  rms(prec ) = 0.33751E-01
  weight for this iteration     100.00

 eigenvalues of (default mixing * dielectric matrix)
  average eigenvalue GAMMA=   1.1274
  2.6166  2.1053  1.2812  1.2812  0.7699  0.7699  0.5181  0.6965  0.6177  0.6177

 Free energy of the ion-electron system (eV)
  ---------------------------------------------------
  alpha Z        PSCENC =      2671.99667194
  Ewald energy   TEWEN  =    -65588.32774799
  -Hartree energ DENC   =    -35896.65131246
  -exchange      EXHF   =         0.00000000
  -V(xc)+E(xc)   XCENC  =      3841.98507894
  PAW double counting   =    106019.83467215  -109354.86471609
  entropy T*S    EENTRO =        -0.00000000
  eigenvalues    EBANDS =    -12650.24615385
  atomic energy  EATOM  =    110354.31518496
  Solvation  Ediel_sol  =         0.00000000
  ---------------------------------------------------
  free energy    TOTEN  =      -601.95832240 eV

  energy without entropy =     -601.95832240  energy(sigma->0) =     -601.95832240


--------------------------------------------------------------------------------------------------------




--------------------------------------- Iteration      1(  16)  ---------------------------------------


    POTLOK:  cpu time    1.0649: real time    1.0678
    SETDIJ:  cpu time    2.3866: real time    2.3925
     EDDAV:  cpu time  449.4682: real time  450.5739
       DOS:  cpu time    0.0046: real time    0.0046
    CHARGE:  cpu time    9.7602: real time    9.7898
    MIXING:  cpu time    0.0345: real time    0.0426
    --------------------------------------------
      LOOP:  cpu time  462.7189: real time  463.8712

 eigenvalue-minimisations  : 41008
 total energy-change (2. order) :-0.7177697E-03  (-0.8143440E-04)
 number of electron     864.0000022 magnetization     143.9854130
 augmentation part      324.6305293 magnetization      95.1647926

 Broyden mixing:
  rms(total) = 0.10172E-01    rms(broyden)= 0.10170E-01
  rms(prec ) = 0.10488E-01
  weight for this iteration     100.00

 eigenvalues of (default mixing * dielectric matrix)
  average eigenvalue GAMMA=   1.1262
  2.7611  2.1481  1.4930  1.2780  0.7929  0.7929  0.5187  0.6069  0.6069  0.7205
  0.6697

 Free energy of the ion-electron system (eV)
  ---------------------------------------------------
  alpha Z        PSCENC =      2671.99667194
  Ewald energy   TEWEN  =    -65588.32774799
  -Hartree energ DENC   =    -35897.57452254
  -exchange      EXHF   =         0.00000000
  -V(xc)+E(xc)   XCENC  =      3842.01782613
  PAW double counting   =    106017.01294257  -109351.64171773
  entropy T*S    EENTRO =        -0.00000000
  eigenvalues    EBANDS =    -12649.75767751
  atomic energy  EATOM  =    110354.31518496
  Solvation  Ediel_sol  =         0.00000000
  ---------------------------------------------------
  free energy    TOTEN  =      -601.95904017 eV

  energy without entropy =     -601.95904017  energy(sigma->0) =     -601.95904017


--------------------------------------------------------------------------------------------------------




--------------------------------------- Iteration      1(  17)  ---------------------------------------


    POTLOK:  cpu time    1.0686: real time    1.0716
    SETDIJ:  cpu time    2.3991: real time    2.4051
     EDDAV:  cpu time  461.1688: real time  462.3076
       DOS:  cpu time    0.0045: real time    0.0047
    CHARGE:  cpu time    9.4565: real time    9.4790
    MIXING:  cpu time    0.0383: real time    0.0383
    --------------------------------------------
      LOOP:  cpu time  474.1359: real time  475.3063

 eigenvalue-minimisations  : 42416
 total energy-change (2. order) :-0.1447505E-03  (-0.2030597E-04)
 number of electron     864.0000022 magnetization     143.9914884
 augmentation part      324.6284909 magnetization      95.1707039

 Broyden mixing:
  rms(total) = 0.47440E-02    rms(broyden)= 0.47423E-02
  rms(prec ) = 0.50608E-02
  weight for this iteration     100.00

 eigenvalues of (default mixing * dielectric matrix)
  average eigenvalue GAMMA=   1.1411
  2.8894  2.3579  1.6013  1.1120  1.1120  0.7807  0.7807  0.5187  0.6982  0.6250
  0.6250  0.5923

 Free energy of the ion-electron system (eV)
  ---------------------------------------------------
  alpha Z        PSCENC =      2671.99667194
  Ewald energy   TEWEN  =    -65588.32774799
  -Hartree energ DENC   =    -35898.13848257
  -exchange      EXHF   =         0.00000000
  -V(xc)+E(xc)   XCENC  =      3842.03956408
  PAW double counting   =    106013.98085625  -109348.45297542
  entropy T*S    EENTRO =        -0.00000000
  eigenvalues    EBANDS =    -12649.37225618
  atomic energy  EATOM  =    110354.31518496
  Solvation  Ediel_sol  =         0.00000000
  ---------------------------------------------------
  free energy    TOTEN  =      -601.95918492 eV

  energy without entropy =     -601.95918492  energy(sigma->0) =     -601.95918492


--------------------------------------------------------------------------------------------------------




--------------------------------------- Iteration      1(  18)  ---------------------------------------


    POTLOK:  cpu time    1.0757: real time    1.0789
    SETDIJ:  cpu time    2.3934: real time    2.3991
     EDDAV:  cpu time  489.8683: real time  491.0730
       DOS:  cpu time    0.0046: real time    0.0046
    CHARGE:  cpu time    9.0155: real time    9.0370
    MIXING:  cpu time    0.0379: real time    0.0380
    --------------------------------------------
      LOOP:  cpu time  502.3952: real time  503.6305

 eigenvalue-minimisations  : 45328
 total energy-change (2. order) :-0.2653980E-04  (-0.4050255E-05)
 number of electron     864.0000022 magnetization     143.9977987
 augmentation part      324.6265563 magnetization      95.1762966

 Broyden mixing:
  rms(total) = 0.27040E-02    rms(broyden)= 0.27024E-02
  rms(prec ) = 0.28954E-02
  weight for this iteration     100.00

 eigenvalues of (default mixing * dielectric matrix)
  average eigenvalue GAMMA=   1.1476
  2.8724  2.4987  1.5089  1.5089  1.0847  0.8443  0.8443  0.7117  0.7117  0.5191
  0.6123  0.6123  0.5895

 Free energy of the ion-electron system (eV)
  ---------------------------------------------------
  alpha Z        PSCENC =      2671.99667194
  Ewald energy   TEWEN  =    -65588.32774799
  -Hartree energ DENC   =    -35898.41205630
  -exchange      EXHF   =         0.00000000
  -V(xc)+E(xc)   XCENC  =      3842.05003519
  PAW double counting   =    106011.63232250  -109346.10028523
  entropy T*S    EENTRO =        -0.00000000
  eigenvalues    EBANDS =    -12649.11333653
  atomic energy  EATOM  =    110354.31518496
  Solvation  Ediel_sol  =         0.00000000
  ---------------------------------------------------
  free energy    TOTEN  =      -601.95921146 eV

  energy without entropy =     -601.95921146  energy(sigma->0) =     -601.95921146


--------------------------------------------------------------------------------------------------------




--------------------------------------- Iteration      1(  19)  ---------------------------------------


    POTLOK:  cpu time    1.0760: real time    1.0791
    SETDIJ:  cpu time    2.3900: real time    2.3957
     EDDAV:  cpu time  469.6171: real time  470.7874
       DOS:  cpu time    0.0045: real time    0.0045
    CHARGE:  cpu time    9.0093: real time    9.0308
    MIXING:  cpu time    0.0405: real time    0.0406
    --------------------------------------------
      LOOP:  cpu time  482.1375: real time  483.3381

 eigenvalue-minimisations  : 43104
 total energy-change (2. order) :-0.1951524E-04  (-0.1576915E-05)
 number of electron     864.0000022 magnetization     143.9995419
 augmentation part      324.6268742 magnetization      95.1780282

 Broyden mixing:
  rms(total) = 0.19960E-02    rms(broyden)= 0.19938E-02
  rms(prec ) = 0.21122E-02
  weight for this iteration     100.00

 eigenvalues of (default mixing * dielectric matrix)
  average eigenvalue GAMMA=   1.1780
  2.8213  2.8213  1.7064  1.7064  1.1215  0.9800  0.8206  0.8206  0.6781  0.6781
  0.5186  0.6002  0.6002  0.6181

 Free energy of the ion-electron system (eV)
  ---------------------------------------------------
  alpha Z        PSCENC =      2671.99667194
  Ewald energy   TEWEN  =    -65588.32774799
  -Hartree energ DENC   =    -35898.43346971
  -exchange      EXHF   =         0.00000000
  -V(xc)+E(xc)   XCENC  =      3842.04856658
  PAW double counting   =    106009.62602543  -109344.08111064
  entropy T*S    EENTRO =        -0.00000000
  eigenvalues    EBANDS =    -12649.10335155
  atomic energy  EATOM  =    110354.31518496
  Solvation  Ediel_sol  =         0.00000000
  ---------------------------------------------------
  free energy    TOTEN  =      -601.95923098 eV

  energy without entropy =     -601.95923098  energy(sigma->0) =     -601.95923098


--------------------------------------------------------------------------------------------------------




--------------------------------------- Iteration      1(  20)  ---------------------------------------


    POTLOK:  cpu time    1.0474: real time    1.0503
    SETDIJ:  cpu time    2.2795: real time    2.2849
     EDDAV:  cpu time  456.9677: real time  458.0883
       DOS:  cpu time    0.0049: real time    0.0049
    CHARGE:  cpu time    8.9461: real time    8.9675
    MIXING:  cpu time    0.0377: real time    0.0378
    --------------------------------------------
      LOOP:  cpu time  469.2833: real time  470.4337

 eigenvalue-minimisations  : 41536
 total energy-change (2. order) :-0.1137481E-04  (-0.1707135E-05)
 number of electron     864.0000022 magnetization     143.9986504
 augmentation part      324.6270914 magnetization      95.1770138

 Broyden mixing:
  rms(total) = 0.11840E-02    rms(broyden)= 0.11806E-02
  rms(prec ) = 0.12596E-02
  weight for this iteration     100.00

 eigenvalues of (default mixing * dielectric matrix)
  average eigenvalue GAMMA=   1.2394
  3.6907  2.6404  2.2146  1.4556  1.4556  0.9404  0.9404  0.7817  0.7817  0.5184
  0.6668  0.6668  0.6150  0.6150  0.6085

 Free energy of the ion-electron system (eV)
  ---------------------------------------------------
  alpha Z        PSCENC =      2671.99667194
  Ewald energy   TEWEN  =    -65588.32774799
  -Hartree energ DENC   =    -35898.44926446
  -exchange      EXHF   =         0.00000000
  -V(xc)+E(xc)   XCENC  =      3842.04942667
  PAW double counting   =    106009.40913145  -109343.86215443
  entropy T*S    EENTRO =        -0.00000000
  eigenvalues    EBANDS =    -12649.09049051
  atomic energy  EATOM  =    110354.31518496
  Solvation  Ediel_sol  =         0.00000000
  ---------------------------------------------------
  free energy    TOTEN  =      -601.95924235 eV

  energy without entropy =     -601.95924235  energy(sigma->0) =     -601.95924235


--------------------------------------------------------------------------------------------------------




--------------------------------------- Iteration      1(  21)  ---------------------------------------


    POTLOK:  cpu time    1.0922: real time    1.0951
    SETDIJ:  cpu time    2.4021: real time    2.4081
     EDDAV:  cpu time  473.5262: real time  474.7146
       DOS:  cpu time    0.0049: real time    0.0049
    CHARGE:  cpu time    8.8620: real time    8.8832
    MIXING:  cpu time    0.0512: real time    0.0514
    --------------------------------------------
      LOOP:  cpu time  485.9387: real time  487.1572

 eigenvalue-minimisations  : 43512
 total energy-change (2. order) :-0.5395093E-05  (-0.4079872E-06)
 number of electron     864.0000022 magnetization     143.9991925
 augmentation part      324.6268348 magnetization      95.1774798

 Broyden mixing:
  rms(total) = 0.70644E-03    rms(broyden)= 0.70116E-03
  rms(prec ) = 0.73801E-03
  weight for this iteration     100.00

 eigenvalues of (default mixing * dielectric matrix)
  average eigenvalue GAMMA=   1.2542
  4.1819  2.6298  2.4026  1.3791  1.3791  1.0550  1.0550  0.8191  0.8191  0.7081
  0.7081  0.5184  0.6139  0.6139  0.5917  0.5917

 Free energy of the ion-electron system (eV)
  ---------------------------------------------------
  alpha Z        PSCENC =      2671.99667194
  Ewald energy   TEWEN  =    -65588.32774799
  -Hartree energ DENC   =    -35898.47944665
  -exchange      EXHF   =         0.00000000
  -V(xc)+E(xc)   XCENC  =      3842.05086471
  PAW double counting   =    106010.09204041  -109344.56584433
  entropy T*S    EENTRO =        -0.00000000
  eigenvalues    EBANDS =    -12649.04097080
  atomic energy  EATOM  =    110354.31518496
  Solvation  Ediel_sol  =         0.00000000
  ---------------------------------------------------
  free energy    TOTEN  =      -601.95924775 eV

  energy without entropy =     -601.95924775  energy(sigma->0) =     -601.95924775


--------------------------------------------------------------------------------------------------------




--------------------------------------- Iteration      1(  22)  ---------------------------------------


    POTLOK:  cpu time    0.9580: real time    0.9607
    SETDIJ:  cpu time    2.4793: real time    2.4854
     EDDAV:  cpu time  474.6402: real time  475.8172
       DOS:  cpu time    0.0051: real time    0.0051
    CHARGE:  cpu time    8.8327: real time    8.8539
    MIXING:  cpu time    0.0509: real time    0.0510
    --------------------------------------------
      LOOP:  cpu time  486.9663: real time  488.1733

 eigenvalue-minimisations  : 43744
 total energy-change (2. order) :-0.2336936E-05  (-0.2426304E-06)
 number of electron     864.0000022 magnetization     144.0001399
 augmentation part      324.6268983 magnetization      95.1783543

 Broyden mixing:
  rms(total) = 0.51482E-03    rms(broyden)= 0.50856E-03
  rms(prec ) = 0.53472E-03
  weight for this iteration     100.00

 eigenvalues of (default mixing * dielectric matrix)
  average eigenvalue GAMMA=   1.2749
  4.4099  2.7245  2.3944  1.4863  1.4863  1.2485  1.0761  0.8669  0.8669  0.7548
  0.7548  0.5186  0.6201  0.6201  0.6344  0.6344  0.5756

 Free energy of the ion-electron system (eV)
  ---------------------------------------------------
  alpha Z        PSCENC =      2671.99667194
  Ewald energy   TEWEN  =    -65588.32774799
  -Hartree energ DENC   =    -35898.47580826
  -exchange      EXHF   =         0.00000000
  -V(xc)+E(xc)   XCENC  =      3842.05048165
  PAW double counting   =    106010.22762093  -109344.70613236
  entropy T*S    EENTRO =        -0.00000000
  eigenvalues    EBANDS =    -12649.03952096
  atomic energy  EATOM  =    110354.31518496
  Solvation  Ediel_sol  =         0.00000000
  ---------------------------------------------------
  free energy    TOTEN  =      -601.95925008 eV

  energy without entropy =     -601.95925008  energy(sigma->0) =     -601.95925008


--------------------------------------------------------------------------------------------------------




--------------------------------------- Iteration      1(  23)  ---------------------------------------


    POTLOK:  cpu time    1.0990: real time    1.1016
    SETDIJ:  cpu time    2.2929: real time    2.2986
     EDDAV:  cpu time  500.8039: real time  502.0234
       DOS:  cpu time    0.0048: real time    0.0049
    CHARGE:  cpu time    8.7771: real time    8.7980
    MIXING:  cpu time    0.0473: real time    0.0474
    --------------------------------------------
      LOOP:  cpu time  513.0250: real time  514.2738

 eigenvalue-minimisations  : 46736
 total energy-change (2. order) :-0.2118715E-05  (-0.4903403E-07)
 number of electron     864.0000022 magnetization     144.0003421
 augmentation part      324.6268277 magnetization      95.1785220

 Broyden mixing:
  rms(total) = 0.42393E-03    rms(broyden)= 0.41624E-03
  rms(prec ) = 0.43735E-03
  weight for this iteration     100.00

 eigenvalues of (default mixing * dielectric matrix)
  average eigenvalue GAMMA=   1.3092
  4.8148  2.8131  2.4804  1.9264  1.5429  1.3061  1.0184  1.0184  0.8338  0.8338
  0.7156  0.7156  0.5185  0.6175  0.6175  0.6129  0.6129  0.5673

 Free energy of the ion-electron system (eV)
  ---------------------------------------------------
  alpha Z        PSCENC =      2671.99667194
[...]
   0.412E+00 0.623E+02 -.600E+02   -.398E+00 -.650E+02 0.626E+02   -.131E-01 0.270E+01 -.261E+01   -.479E-05 0.471E-05 -.916E-05
   0.412E+00 0.622E+02 -.600E+02   -.398E+00 -.649E+02 0.626E+02   -.131E-01 0.270E+01 -.261E+01   -.565E-05 0.179E-05 -.897E-05
   0.377E+00 0.622E+02 -.600E+02   -.365E+00 -.650E+02 0.626E+02   -.103E-01 0.270E+01 -.261E+01   -.414E-05 0.260E-05 -.996E-05
   0.412E+00 0.622E+02 -.600E+02   -.398E+00 -.649E+02 0.626E+02   -.132E-01 0.270E+01 -.261E+01   -.701E-05 0.569E-05 -.770E-05
   0.412E+00 0.623E+02 -.600E+02   -.398E+00 -.650E+02 0.626E+02   -.132E-01 0.270E+01 -.261E+01   -.752E-05 0.621E-05 -.745E-05
   0.376E+00 0.622E+02 -.600E+02   -.364E+00 -.650E+02 0.626E+02   -.100E-01 0.270E+01 -.261E+01   -.612E-05 0.496E-05 -.908E-05
   0.325E+00 -.254E+01 -.264E+01   -.268E+00 0.160E+01 0.166E+01   -.874E-01 0.947E+00 0.986E+00   -.657E-05 -.246E-05 -.649E-05
   -.106E+01 -.255E+01 -.265E+01   0.108E+01 0.161E+01 0.167E+01   0.499E-02 0.948E+00 0.988E+00   0.231E-06 -.400E-05 -.625E-05
   -.106E+01 -.255E+01 -.265E+01   0.108E+01 0.161E+01 0.167E+01   0.486E-02 0.945E+00 0.985E+00   0.134E-05 -.297E-05 -.710E-05
   -.799E+00 -.255E+01 -.265E+01   0.828E+00 0.161E+01 0.167E+01   -.124E-01 0.947E+00 0.986E+00   -.278E-05 -.263E-05 -.781E-05
   -.860E+00 -.255E+01 -.265E+01   0.886E+00 0.161E+01 0.167E+01   -.974E-02 0.947E+00 0.986E+00   0.141E-05 -.184E-05 -.775E-05
   -.860E+00 -.255E+01 -.265E+01   0.886E+00 0.161E+01 0.167E+01   -.974E-02 0.947E+00 0.987E+00   -.995E-06 -.192E-05 -.608E-05
   -.799E+00 -.255E+01 -.265E+01   0.828E+00 0.161E+01 0.167E+01   -.125E-01 0.947E+00 0.986E+00   -.178E-05 -.357E-05 -.697E-05
   -.860E+00 -.255E+01 -.265E+01   0.886E+00 0.161E+01 0.167E+01   -.974E-02 0.947E+00 0.986E+00   -.622E-06 -.353E-05 -.635E-05
   -.860E+00 -.255E+01 -.265E+01   0.886E+00 0.161E+01 0.167E+01   -.975E-02 0.947E+00 0.987E+00   -.284E-06 -.314E-05 -.615E-05
   -.823E+00 -.255E+01 -.265E+01   0.850E+00 0.161E+01 0.167E+01   -.112E-01 0.947E+00 0.986E+00   -.178E-05 -.234E-05 -.604E-05
   -.848E+00 -.255E+01 -.265E+01   0.875E+00 0.161E+01 0.167E+01   -.107E-01 0.947E+00 0.986E+00   -.306E-06 -.216E-05 -.724E-05
   -.848E+00 -.255E+01 -.265E+01   0.875E+00 0.161E+01 0.167E+01   -.107E-01 0.947E+00 0.987E+00   -.847E-06 -.298E-05 -.692E-05
   -.775E+00 0.255E+01 0.265E+01   0.803E+00 -.161E+01 -.167E+01   -.128E-01 -.947E+00 -.986E+00   0.724E-05 0.183E-05 0.865E-05
   -.868E+00 0.253E+01 0.263E+01   0.895E+00 -.159E+01 -.165E+01   -.102E-01 -.946E+00 -.986E+00   -.150E-05 0.150E-05 0.703E-05
   -.869E+00 0.257E+01 0.267E+01   0.895E+00 -.163E+01 -.169E+01   -.103E-01 -.948E+00 -.987E+00   -.242E-05 0.248E-05 0.680E-05
   -.767E+00 0.255E+01 0.265E+01   0.795E+00 -.161E+01 -.167E+01   -.132E-01 -.947E+00 -.986E+00   -.316E-05 0.350E-05 0.587E-05
   -.871E+00 0.258E+01 0.263E+01   0.898E+00 -.163E+01 -.165E+01   -.100E-01 -.947E+00 -.986E+00   0.145E-06 0.304E-05 0.683E-05
   -.872E+00 0.253E+01 0.268E+01   0.898E+00 -.159E+01 -.169E+01   -.100E-01 -.946E+00 -.987E+00   -.753E-06 0.490E-05 0.687E-05
   -.767E+00 0.255E+01 0.265E+01   0.795E+00 -.161E+01 -.167E+01   -.132E-01 -.947E+00 -.986E+00   -.351E-05 0.182E-05 0.666E-05
   -.871E+00 0.253E+01 0.267E+01   0.898E+00 -.158E+01 -.169E+01   -.100E-01 -.946E+00 -.987E+00   -.427E-07 0.358E-05 0.674E-05
   -.872E+00 0.258E+01 0.263E+01   0.898E+00 -.163E+01 -.165E+01   -.100E-01 -.948E+00 -.986E+00   0.176E-06 0.248E-05 0.794E-05
   -.747E+00 0.255E+01 0.265E+01   0.777E+00 -.161E+01 -.167E+01   -.146E-01 -.947E+00 -.986E+00   -.222E-05 0.369E-05 0.740E-05
   -.878E+00 0.258E+01 0.268E+01   0.904E+00 -.164E+01 -.170E+01   -.974E-02 -.948E+00 -.987E+00   0.264E-06 0.232E-05 0.628E-05
   -.878E+00 0.252E+01 0.262E+01   0.904E+00 -.158E+01 -.164E+01   -.973E-02 -.946E+00 -.985E+00   0.580E-06 0.322E-05 0.695E-05
   0.978E+00 0.639E+02 -.616E+02   -.976E+00 -.649E+02 0.626E+02   -.192E-01 0.102E+01 -.988E+00   0.188E-05 -.171E-04 -.149E-04
   0.390E-01 0.638E+02 -.616E+02   -.736E-01 -.648E+02 0.626E+02   0.117E-01 0.102E+01 -.987E+00   -.836E-05 -.111E-04 -.514E-05
   0.392E-01 0.641E+02 -.615E+02   -.738E-01 -.651E+02 0.625E+02   0.117E-01 0.102E+01 -.989E+00   -.936E-05 -.135E-04 -.153E-04
   0.597E+00 0.639E+02 -.616E+02   -.612E+00 -.649E+02 0.626E+02   -.273E-02 0.102E+01 -.988E+00   -.211E-04 -.424E-05 -.842E-05
   0.103E+00 0.640E+02 -.616E+02   -.139E+00 -.651E+02 0.626E+02   0.135E-01 0.102E+01 -.987E+00   -.296E-05 -.547E-05 -.762E-05
   0.103E+00 0.638E+02 -.616E+02   -.139E+00 -.648E+02 0.625E+02   0.135E-01 0.102E+01 -.989E+00   -.884E-05 -.111E-04 -.145E-04
   0.306E+00 0.639E+02 -.616E+02   -.334E+00 -.649E+02 0.626E+02   0.660E-02 0.102E+01 -.988E+00   -.693E-05 -.118E-04 -.111E-04
   0.201E+00 0.639E+02 -.616E+02   -.231E+00 -.649E+02 0.626E+02   0.786E-02 0.102E+01 -.989E+00   -.116E-04 -.136E-04 -.149E-04
   0.201E+00 0.639E+02 -.616E+02   -.231E+00 -.650E+02 0.626E+02   0.787E-02 0.102E+01 -.987E+00   -.119E-04 -.140E-04 -.113E-04
   0.297E+00 0.639E+02 -.616E+02   -.325E+00 -.649E+02 0.626E+02   0.656E-02 0.102E+01 -.988E+00   -.949E-05 -.809E-05 -.936E-05
   0.206E+00 0.639E+02 -.616E+02   -.235E+00 -.650E+02 0.626E+02   0.783E-02 0.102E+01 -.989E+00   -.632E-05 -.839E-05 -.111E-04
   0.206E+00 0.639E+02 -.616E+02   -.235E+00 -.649E+02 0.626E+02   0.784E-02 0.102E+01 -.987E+00   -.101E-04 -.598E-05 -.817E-05
   0.978E+00 -.639E+02 0.616E+02   -.976E+00 0.649E+02 -.626E+02   -.192E-01 -.102E+01 0.988E+00   0.148E-05 0.362E-05 0.726E-05
   0.391E-01 -.639E+02 0.614E+02   -.736E-01 0.650E+02 -.624E+02   0.116E-01 -.102E+01 0.991E+00   -.707E-05 0.118E-04 0.139E-04
   0.392E-01 -.639E+02 0.617E+02   -.738E-01 0.649E+02 -.627E+02   0.116E-01 -.102E+01 0.985E+00   -.927E-05 0.384E-05 0.678E-05
   0.306E+00 -.639E+02 0.616E+02   -.334E+00 0.649E+02 -.626E+02   0.659E-02 -.102E+01 0.988E+00   -.128E-04 0.154E-04 0.120E-04
   0.201E+00 -.639E+02 0.616E+02   -.231E+00 0.649E+02 -.625E+02   0.786E-02 -.102E+01 0.988E+00   -.292E-05 0.140E-04 0.153E-04
   0.201E+00 -.639E+02 0.616E+02   -.231E+00 0.650E+02 -.626E+02   0.788E-02 -.102E+01 0.987E+00   -.127E-04 0.725E-05 0.514E-05
   0.597E+00 -.639E+02 0.616E+02   -.612E+00 0.649E+02 -.626E+02   -.273E-02 -.102E+01 0.988E+00   -.222E-04 0.657E-05 0.815E-05
   0.103E+00 -.639E+02 0.617E+02   -.139E+00 0.650E+02 -.627E+02   0.134E-01 -.102E+01 0.987E+00   -.628E-05 0.708E-05 0.450E-05
   0.103E+00 -.639E+02 0.615E+02   -.139E+00 0.649E+02 -.625E+02   0.135E-01 -.102E+01 0.989E+00   -.369E-06 0.520E-05 0.986E-05
   0.297E+00 -.639E+02 0.616E+02   -.325E+00 0.649E+02 -.626E+02   0.656E-02 -.102E+01 0.988E+00   -.114E-04 0.119E-04 0.991E-05
   0.206E+00 -.639E+02 0.616E+02   -.235E+00 0.649E+02 -.626E+02   0.783E-02 -.102E+01 0.988E+00   -.747E-05 0.114E-04 0.114E-04
   0.206E+00 -.639E+02 0.616E+02   -.235E+00 0.650E+02 -.625E+02   0.783E-02 -.102E+01 0.988E+00   -.632E-05 0.128E-04 0.121E-04
   0.632E+00 -.671E+00 -.696E+00   -.605E+00 0.650E+00 0.674E+00   -.503E-01 0.215E-01 0.223E-01   -.760E-05 0.480E-05 0.189E-05
   0.628E+00 0.661E+00 0.687E+00   -.601E+00 -.641E+00 -.665E+00   -.503E-01 -.209E-01 -.217E-01   -.956E-05 -.228E-05 -.966E-06
   0.801E+00 -.390E-03 -.409E-03   -.766E+00 0.344E-03 0.357E-03   -.646E-01 0.523E-04 0.523E-04   -.518E-06 -.306E-05 0.314E-05
   0.105E+01 0.837E-01 -.340E-01   -.101E+01 -.799E-01 0.300E-01   -.737E-01 -.297E-02 0.327E-02   -.907E-05 -.494E-06 -.222E-06
   0.105E+01 -.838E-01 0.341E-01   -.101E+01 0.800E-01 -.300E-01   -.737E-01 0.299E-02 -.331E-02   -.740E-05 0.357E-05 -.356E-05
   0.931E+00 0.197E-03 -.800E-04   -.891E+00 -.200E-03 0.871E-04   -.696E-01 -.368E-06 -.871E-05   -.134E-05 0.942E-06 0.183E-05
   0.105E+01 -.371E-01 0.823E-01   -.101E+01 0.329E-01 -.787E-01   -.737E-01 0.337E-02 -.284E-02   -.517E-05 0.434E-05 -.264E-05
   0.105E+01 0.372E-01 -.824E-01   -.101E+01 -.330E-01 0.788E-01   -.737E-01 -.341E-02 0.286E-02   -.576E-05 -.137E-05 0.232E-05
   0.931E+00 -.890E-04 0.203E-03   -.891E+00 0.944E-04 -.196E-03   -.696E-01 -.650E-05 -.689E-05   -.631E-05 0.440E-06 0.118E-05
   0.104E+01 0.185E-01 0.192E-01   -.996E+00 -.184E-01 -.191E-01   -.732E-01 -.527E-04 -.688E-04   -.718E-05 -.141E-05 0.354E-05
   0.104E+01 -.186E-01 -.193E-01   -.995E+00 0.185E-01 0.192E-01   -.732E-01 0.724E-04 0.807E-04   -.516E-05 -.328E-05 0.347E-05
   0.968E+00 0.844E-04 0.809E-04   -.927E+00 -.701E-04 -.728E-04   -.701E-01 -.126E-04 -.667E-05   -.552E-05 0.592E-06 -.126E-05
 -----------------------------------------------------------------------------------------------
   0.934E+00 -.611E-03 -.627E-03   0.325E-12 0.215E-13 0.619E-12   -.938E+00 0.621E-03 0.635E-03   -.411E-03 -.830E-05 -.753E-05
 
 
 POSITION                                       TOTAL-FORCE (eV/Angst)
 -----------------------------------------------------------------------------------
      1.21012      2.83168      0.03137         0.018123      0.001129     -0.001046
      5.04691      2.83168      0.03137         0.018330     -0.000990      0.000943
      8.88370      2.83168      0.03137         0.017356     -0.000007      0.000006
      1.21012      8.49503      0.09412         0.018414     -0.000372     -0.000371
      5.04691      8.49503      0.09412         0.018424      0.000375      0.000368
      8.88370      8.49503      0.09412         0.017845      0.000001      0.000000
      1.21012      2.68326      5.69313         0.018331      0.000351      0.000376
      5.04691      2.68326      5.69313         0.018333     -0.000353     -0.000383
      8.88370      2.68326      5.69313         0.017890      0.000001      0.000001
      1.21012      8.34662      5.75587         0.018372     -0.000034      0.000008
      5.04691      8.34662      5.75587         0.018373      0.000031     -0.000008
      8.88370      8.34662      5.75587         0.017950      0.000000     -0.000000
      1.21012     -0.07421      2.83088         0.018127     -0.001089      0.001091
      5.04691     -0.07421      2.83088         0.018332      0.000976     -0.000955
      8.88370     -0.07421      2.83088         0.017357      0.000008     -0.000005
      1.21012      5.58915      2.89362         0.018331      0.000365      0.000367
      5.04691      5.58915      2.89362         0.018331     -0.000371     -0.000368
      8.88370      5.58915      2.89362         0.017894     -0.000002     -0.000000
      1.21012     -0.22262      8.49264         0.018419     -0.000357     -0.000387
      5.04691     -0.22262      8.49264         0.018430      0.000356      0.000388
      8.88370     -0.22262      8.49264         0.017847      0.000001      0.000001
      1.21012      5.44073      8.55538         0.018375      0.000011     -0.000033
      5.04691      5.44073      8.55538         0.018378     -0.000009      0.000031
      8.88370      5.44073      8.55538         0.017955     -0.000001      0.000001
      1.22181      1.30774      4.25891         0.003351     -0.001897     -0.001745
      5.05860      1.30774      4.25891         0.003354     -0.002678      0.007031
      8.89539      1.30774      4.25891         0.002928     -0.002278      0.002641
      1.22181      6.97110      4.32165         0.001025     -0.002249      0.002565
      5.05860      6.97110      4.32165         0.001021     -0.002308      0.002699
      8.89539      6.97110      4.32165         0.001960     -0.002281      0.002631
      1.22181      1.15933      9.92066         0.003580     -0.003103      0.008783
      5.05860      1.15933      9.92066         0.003537     -0.001440     -0.003540
      8.89539      1.15933      9.92066         0.002951     -0.002280      0.002630
      1.22181      6.82268      9.98341         0.000990     -0.002364      0.002771
      5.05860      6.82268      9.98341         0.000976     -0.002194      0.002492
      8.89539      6.82268      9.98341         0.002087     -0.002284      0.002631
      1.22181      4.20720      1.46560         0.003366     -0.002101     -0.002410
      5.05860      4.20720      1.46560         0.003376      0.006689     -0.002867
      8.89539      4.20720      1.46560         0.002933      0.002282     -0.002636
      1.22181      9.87055      1.52834         0.003580      0.008458     -0.003225
      5.05860      9.87055      1.52834         0.003538     -0.003923     -0.002025
      8.89539      9.87055      1.52834         0.002958      0.002280     -0.002630
      1.22181      4.05878      7.12735         0.001018      0.002211     -0.002600
      5.05860      4.05878      7.12735         0.001016      0.002351     -0.002660
      8.89539      4.05878      7.12735         0.001964      0.002282     -0.002632
      1.22181      9.72214      7.19010         0.000995      0.002416     -0.002717
      5.05860      9.72214      7.19010         0.000984      0.002137     -0.002550
      8.89539      9.72214      7.19010         0.002087      0.002280     -0.002632
      3.15002      1.30257      1.35207        -0.030215      0.003604      0.004734
      6.97680      1.30257      1.35207         0.022827      0.004051      0.005200
     10.81359      1.30257      1.35207         0.022744      0.003685      0.004819
      3.14002      6.96592      1.41481         0.015695      0.003877      0.005011
      6.97680      6.96592      1.41481         0.016731      0.003760      0.004983
     10.81359      6.96592      1.41481         0.016732      0.003979      0.005036
      3.14002      1.15415      7.01382         0.015692      0.003870      0.005016
      6.97680      1.15415      7.01382         0.016729      0.003846      0.004898
     10.81359      1.15415      7.01382         0.016729      0.003893      0.005122
      3.14002      6.81751      7.07657         0.016203      0.003871      0.005009
      6.97680      6.81751      7.07657         0.016392      0.003816      0.004953
     10.81359      6.81751      7.07657         0.016395      0.003927      0.005071
      3.14002      4.21237      4.37244         0.015083     -0.003868     -0.005007
      6.97680      4.21237      4.37244         0.016595     -0.003521     -0.004644
     10.81359      4.21237      4.37244         0.016596     -0.004218     -0.005373
      3.14002      9.87572      4.43518         0.015464     -0.003859     -0.005020
      6.97680      9.87572      4.43518         0.016682     -0.004183     -0.004602
     10.81359      9.87572      4.43518         0.016683     -0.003563     -0.005421
      3.14002      4.06395     10.03419         0.015460     -0.003881     -0.004998
      6.97680      4.06395     10.03419         0.016678     -0.003453     -0.005311
     10.81359      4.06395     10.03419         0.016680     -0.004291     -0.004717
      3.14002      9.72731     10.09694         0.015222     -0.003867     -0.005009
      6.97680      9.72731     10.09694         0.016461     -0.004387     -0.005549
     10.81359      9.72731     10.09694         0.016464     -0.003348     -0.004467
      3.14085      3.79283      1.86480        -0.016919     -0.005799      0.005854
      6.97764      3.79283      1.86480        -0.022909     -0.006629      0.005625
     10.81443      3.79283      1.86480        -0.022901     -0.004908      0.006087
      3.14085      9.45618      1.92754        -0.018047     -0.005777      0.005864
      6.97764      9.45618      1.92754        -0.023150     -0.005312      0.005607
     10.81443      9.45618      1.92754        -0.023162     -0.006216      0.006109
      3.14085      3.64441      7.52655        -0.021333     -0.005766      0.005853
      6.97764      3.64441      7.52655        -0.021627     -0.005918      0.005983
     10.81443      3.64441      7.52655        -0.021625     -0.005614      0.005731
      3.14085      9.30777      7.58930        -0.021269     -0.005765      0.005858
      6.97764      9.30777      7.58930        -0.021652     -0.005749      0.006009
     10.81443      9.30777      7.58930        -0.021652     -0.005780      0.005709
      3.14085      1.72211      3.85971        -0.016892      0.005763     -0.005892
      6.97764      1.72211      3.85971        -0.022897      0.005563     -0.006733
     10.81443      1.72211      3.85971        -0.022898      0.005960     -0.004995
      3.14085      7.38547      3.92245        -0.021338      0.005763     -0.005857
      6.97764      7.38547      3.92245        -0.021620      0.005897     -0.006003
     10.81443      7.38547      3.92245        -0.021617      0.005631     -0.005713
      3.14085      1.57370      9.52146        -0.018053      0.005770     -0.005873
      6.97764      1.57370      9.52146        -0.023146      0.005494     -0.005419
     10.81443      1.57370      9.52146        -0.023153      0.006032     -0.006300
      3.14085      7.23705      9.58421        -0.021266      0.005764     -0.005858
      6.97764      7.23705      9.58421        -0.021646      0.005913     -0.005836
     10.81443      7.23705      9.58421        -0.021650      0.005617     -0.005881
      1.23519      0.00000      0.00000        -0.022957      0.000497      0.000513
      5.07198      0.00000      0.00000        -0.023332     -0.000202     -0.000207
      8.90877      0.00000      0.00000        -0.030345      0.000003      0.000004
      1.23519      5.66335      0.06274        -0.028409      0.000788     -0.000750
      5.07198      5.66335      0.06274        -0.028412     -0.000788      0.000755
      8.90877      5.66335      0.06274        -0.029427     -0.000002      0.000000
      1.23519     -0.14842      5.66176        -0.028406     -0.000775      0.000755
      5.07198     -0.14842      5.66176        -0.028410      0.000782     -0.000758
      8.90877     -0.14842      5.66176        -0.029430     -0.000001      0.000000
      1.23519      5.51494      5.72450        -0.028493      0.000015      0.000021
      5.07198      5.51494      5.72450        -0.028491     -0.000019     -0.000023
      8.90877      5.51494      5.72450        -0.029279      0.000002      0.000000
 -----------------------------------------------------------------------------------
    total drift:                               -0.004371      0.000002     -0.000000


--------------------------------------------------------------------------------------------------------



  FREE ENERGIE OF THE ION-ELECTRON SYSTEM (eV)
  ---------------------------------------------------
  free  energy   TOTEN  =      -601.95926186 eV

  energy  without entropy=     -601.95926186  energy(sigma->0) =     -601.95926186
 


--------------------------------------------------------------------------------------------------------


    POTLOK:  cpu time    3.1388: real time    3.1465


--------------------------------------------------------------------------------------------------------


     LOOP+:  cpu time16872.4180: real time16914.7996
    4ORBIT:  cpu time    0.0000: real time    0.0000

 total amount of memory used by VASP MPI-rank0  1877671. kBytes
=======================================================================

   base      :      30000. kBytes
   nonl-proj :      54531. kBytes
   fftplans  :     107775. kBytes
   grid      :      78796. kBytes
   one-center:        342. kBytes
   wavefun   :    1606227. kBytes
 
  
  
 General timing and accounting informations for this job:
 ========================================================
  
                  Total CPU time used (sec):    16986.078
                            User time (sec):    16957.460
                          System time (sec):       28.619
                         Elapsed time (sec):    17028.750
  
                   Maximum memory used (kb):     2073728.
                   Average memory used (kb):           0.
  
                          Minor page faults:      2010023
                          Major page faults:            8
                 Voluntary context switches:         5351
