<?xml version="1.0" encoding="ISO-8859-1"?>
<modeling>
 <generator>
  <i name="program" type="string">vasp </i>
  <i name="version" type="string">5.4.4.18Apr17-6-g9f103f2a35  </i>
  <i name="subversion" type="string">(build Oct 25 2017 14:42:18) complex            parallel </i>
  <i name="platform" type="string">LinuxIFC </i>
  <i name="date" type="string">2021 04 13 </i>
  <i name="time" type="string">02:40:22 </i>
 </generator>
 <incar>
  <i type="string" name="PREC">accurate</i>
  <i type="string" name="ALGO"> normal</i>
  <i type="logical" name="ADDGRID"> T  </i>
  <i type="int" name="ISPIN">     2</i>
  <i type="int" name="NELM">   200</i>
  <i type="int" name="NELMIN">     8</i>
  <i name="EDIFF">      0.00000001</i>
  <i type="int" name="ISIF">     3</i>
  <i type="int" name="ISYM">     0</i>
  <i name="ENCUT">    650.00000000</i>
  <v name="MAGMOM">      0.60000000      0.60000000      0.60000000      0.60000000      0.60000000      0.60000000      0.60000000      0.60000000      0.60000000      0.60000000      0.60000000      0.60000000      0.60000000      0.60000000      0.60000000      0.60000000      0.60000000      0.60000000      0.60000000      0.60000000
      0.60000000      0.60000000      0.60000000      0.60000000      0.60000000      0.60000000      0.60000000      0.60000000      0.60000000      0.60000000      0.60000000      0.60000000      0.60000000      0.60000000      0.60000000      0.60000000      0.60000000      0.60000000      0.60000000      0.60000000
      0.60000000      0.60000000      0.60000000      0.60000000      0.60000000      0.60000000      0.60000000      0.60000000      0.60000000      0.60000000      0.60000000      0.60000000      0.60000000      0.60000000      0.60000000      0.60000000      0.60000000      0.60000000      0.60000000      0.60000000
      0.60000000      0.60000000      0.60000000      0.60000000      0.60000000      0.60000000      0.60000000      0.60000000      0.60000000      0.60000000      0.60000000      0.60000000      5.00000000      5.00000000      5.00000000      5.00000000      5.00000000      5.00000000      5.00000000      5.00000000
      5.00000000      5.00000000      5.00000000      5.00000000      5.00000000      5.00000000      5.00000000      5.00000000      5.00000000      5.00000000      5.00000000      5.00000000      5.00000000      5.00000000      5.00000000      5.00000000      5.00000000      5.00000000      5.00000000      5.00000000
      5.00000000      5.00000000      5.00000000      5.00000000      5.00000000      5.00000000      5.00000000      5.00000000</v>
  <i type="logical" name="LREAL"> F  </i>
  <i type="int" name="ISMEAR">     0</i>
  <i name="SIGMA">      0.05000000</i>
  <i type="int" name="NWRITE">     1</i>
  <i type="int" name="LMAXMIX">     4</i>
  <i type="logical" name="LWAVE"> F  </i>
  <i type="logical" name="LASPH"> T  </i>
  <v type="int" name="KPOINT_BSE">    -1     0     0     0</v>
  <i type="int" name="NELM">   200</i>
  <i type="string" name="GGA"> pe</i>
  <i type="logical" name="LDAU"> T  </i>
  <v type="int" name="LDAUTYPE">     2</v>
  <v type="int" name="LDAUL">    -1    -1    -1     2</v>
  <v name="LDAUU">      0.00000000      0.00000000      0.00000000      4.00000000</v>
  <v name="LDAUJ">      0.00000000      0.00000000      0.00000000      0.00000000</v>
  <i type="logical" name="LASPH"> T  </i>
 </incar>
 <structure name="primitive_cell" >
  <crystal>
   <varray name="basis" >
    <v>      11.51036847       0.00000000       0.00000000 </v>
    <v>       0.00000000      11.32670916       0.12548940 </v>
    <v>       0.00000000      -0.29683152      11.32351444 </v>
   </varray>
   <i name="volume">   1476.72737236 </i>
   <varray name="rec_basis" >
    <v>       0.08687819       0.00000000       0.00000000 </v>
    <v>       0.00000000       0.08826126       0.00231366 </v>
    <v>       0.00000000      -0.00097813       0.08828616 </v>
   </varray>
  </crystal>
  <varray name="positions" >
   <v>       0.10513295       0.25000000       0.00000000 </v>
   <v>       0.10614906       0.12527662      -0.12527662 </v>
   <v>       0.10614906       0.37472338       0.12527662 </v>
   <v>      -0.06053449       0.11809471       0.11809471 </v>
   <v>      -0.06053449       0.38190529      -0.11809471 </v>
   <v>       0.27279884       0.38190529      -0.11809471 </v>
   <v>       0.27366763       0.11809471       0.11809471 </v>
   <v>      -0.06046182       0.33907427       0.16092573 </v>
   <v>      -0.06046182       0.16092573      -0.16092573 </v>
   <v>       0.27287151       0.33907427       0.16092573 </v>
   <v>       0.27287151       0.16092573      -0.16092573 </v>
   <v>       0.10731129       0.00000000       0.00000000 </v>
   <v>       0.10731129      -0.50000000       0.00000000 </v>
   <v>       0.43846628       0.25000000       0.00000000 </v>
   <v>      -0.22820039       0.25000000       0.00000000 </v>
   <v>       0.10513295      -0.50000000       0.25000000 </v>
   <v>       0.10513295       0.00000000      -0.25000000 </v>
   <v>       0.10513295       0.00000000       0.25000000 </v>
   <v>       0.10513295      -0.50000000      -0.25000000 </v>
   <v>      -0.22718428       0.12527662      -0.12527662 </v>
   <v>      -0.22718428       0.37472338       0.12527662 </v>
   <v>       0.43948239       0.12527662      -0.12527662 </v>
   <v>       0.43948239       0.37472338       0.12527662 </v>
   <v>      -0.06046182       0.33907427      -0.33907427 </v>
   <v>      -0.06046182       0.16092573       0.33907427 </v>
   <v>       0.27287151       0.33907427      -0.33907427 </v>
   <v>       0.27287151       0.16092573       0.33907427 </v>
   <v>       0.10614906       0.12527662       0.37472338 </v>
   <v>       0.10614906       0.37472338      -0.37472338 </v>
   <v>       0.10614906      -0.37472338      -0.12527662 </v>
   <v>       0.10614906      -0.12527662       0.12527662 </v>
   <v>      -0.22602204       0.00000000       0.00000000 </v>
   <v>      -0.22602204      -0.50000000       0.00000000 </v>
   <v>      -0.06053449      -0.38190529       0.11809471 </v>
   <v>      -0.06053449      -0.11809471      -0.11809471 </v>
   <v>       0.27279884      -0.38190529       0.11809471 </v>
   <v>       0.27279884      -0.11809471      -0.11809471 </v>
   <v>       0.44064462       0.00000000       0.00000000 </v>
   <v>       0.44064462      -0.50000000       0.00000000 </v>
   <v>      -0.06053449       0.11809471      -0.38190529 </v>
   <v>      -0.06053449       0.38190529       0.38190529 </v>
   <v>       0.27279884       0.11809471      -0.38190529 </v>
   <v>       0.27279884       0.38190529       0.38190529 </v>
   <v>      -0.06046182      -0.16092573       0.16092573 </v>
   <v>      -0.06046182      -0.33907427      -0.16092573 </v>
   <v>       0.27287151      -0.16092573       0.16092573 </v>
   <v>       0.27287151      -0.33907427      -0.16092573 </v>
   <v>       0.43846628      -0.50000000       0.25000000 </v>
   <v>       0.43846628       0.00000000      -0.25000000 </v>
   <v>      -0.22820039      -0.50000000       0.25000000 </v>
   <v>      -0.22820039       0.00000000      -0.25000000 </v>
   <v>       0.43846628       0.00000000       0.25000000 </v>
   <v>       0.43846628      -0.50000000      -0.25000000 </v>
   <v>      -0.22820039       0.00000000       0.25000000 </v>
   <v>      -0.22820039      -0.50000000      -0.25000000 </v>
   <v>       0.10513295      -0.25000000       0.00000000 </v>
   <v>       0.10513295       0.25000000      -0.50000000 </v>
   <v>      -0.22718428       0.12527662       0.37472338 </v>
   <v>      -0.22718428       0.37472338      -0.37472338 </v>
   <v>      -0.22718428      -0.37472338      -0.12527662 </v>
   <v>      -0.22718428      -0.12527662       0.12527662 </v>
   <v>       0.43948239       0.12527662       0.37472338 </v>
   <v>       0.43948239       0.37472338      -0.37472338 </v>
   <v>       0.43948239      -0.37472338      -0.12527662 </v>
   <v>       0.43948239      -0.12527662       0.12527662 </v>
   <v>       0.10614906      -0.37472338       0.37472338 </v>
   <v>       0.10614906      -0.12527662      -0.37472338 </v>
   <v>      -0.39386782       0.11809471       0.11809471 </v>
   <v>      -0.39386782       0.38190529      -0.11809471 </v>
   <v>      -0.39379516       0.33907427       0.16092573 </v>
   <v>      -0.39379516       0.16092573      -0.16092573 </v>
   <v>      -0.06046182      -0.16092573      -0.33907427 </v>
   <v>      -0.06046182      -0.33907427       0.33907427 </v>
   <v>       0.27287151      -0.16092573      -0.33907427 </v>
   <v>       0.27287151      -0.33907427       0.33907427 </v>
   <v>       0.10731129       0.00000000      -0.50000000 </v>
   <v>       0.10731129      -0.50000000      -0.50000000 </v>
   <v>      -0.06053449      -0.38190529      -0.38190529 </v>
   <v>      -0.06053449      -0.11809471       0.38190529 </v>
   <v>       0.27279884      -0.38190529      -0.38190529 </v>
   <v>       0.27279884      -0.11809471       0.38190529 </v>
   <v>       0.43846628      -0.25000000       0.00000000 </v>
   <v>      -0.22820039      -0.25000000       0.00000000 </v>
   <v>       0.43846628       0.25000000      -0.50000000 </v>
   <v>      -0.22820039       0.25000000      -0.50000000 </v>
   <v>      -0.39379516       0.33907427      -0.33907427 </v>
   <v>      -0.39379516       0.16092573       0.33907427 </v>
   <v>      -0.22718428      -0.37472338       0.37472338 </v>
   <v>      -0.22718428      -0.12527662      -0.37472338 </v>
   <v>       0.43948239      -0.37472338       0.37472338 </v>
   <v>       0.43948239      -0.12527662      -0.37472338 </v>
   <v>      -0.39386782      -0.38190529       0.11809471 </v>
   <v>      -0.39386782      -0.11809471      -0.11809471 </v>
   <v>      -0.39386782       0.11809471      -0.38190529 </v>
   <v>      -0.39386782       0.38190529       0.38190529 </v>
   <v>      -0.22602204       0.00000000      -0.50000000 </v>
   <v>      -0.22602204      -0.50000000      -0.50000000 </v>
   <v>       0.44064462       0.00000000      -0.50000000 </v>
   <v>       0.44064462      -0.50000000      -0.50000000 </v>
   <v>      -0.39379516      -0.16092573       0.16092573 </v>
   <v>      -0.39379516      -0.33907427      -0.16092573 </v>
   <v>       0.10513295      -0.25000000      -0.50000000 </v>
   <v>      -0.39379516      -0.16092573      -0.33907427 </v>
   <v>      -0.39379516      -0.33907427       0.33907427 </v>
   <v>      -0.39386782      -0.38190529      -0.38190529 </v>
   <v>      -0.39386782      -0.11809471       0.38190529 </v>
   <v>       0.43846628      -0.25000000      -0.50000000 </v>
   <v>      -0.22820039      -0.25000000      -0.50000000 </v>
  </varray>
 </structure>
 <varray name="primitive_index" >
  <v type="int" >        1 </v>
  <v type="int" >       31 </v>
  <v type="int" >       37 </v>
  <v type="int" >       51 </v>
  <v type="int" >       69 </v>
  <v type="int" >       67 </v>
  <v type="int" >       49 </v>
  <v type="int" >       75 </v>
  <v type="int" >       93 </v>
  <v type="int" >       73 </v>
  <v type="int" >       91 </v>
  <v type="int" >       97 </v>
  <v type="int" >      100 </v>
  <v type="int" >        2 </v>
  <v type="int" >        3 </v>
  <v type="int" >       16 </v>
  <v type="int" >       19 </v>
  <v type="int" >       13 </v>
  <v type="int" >       22 </v>
  <v type="int" >       33 </v>
  <v type="int" >       39 </v>
  <v type="int" >       32 </v>
  <v type="int" >       38 </v>
  <v type="int" >       81 </v>
  <v type="int" >       87 </v>
  <v type="int" >       79 </v>
  <v type="int" >       85 </v>
  <v type="int" >       25 </v>
  <v type="int" >       43 </v>
  <v type="int" >       34 </v>
  <v type="int" >       40 </v>
  <v type="int" >       99 </v>
  <v type="int" >      102 </v>
  <v type="int" >       54 </v>
  <v type="int" >       72 </v>
  <v type="int" >       52 </v>
  <v type="int" >       70 </v>
  <v type="int" >       98 </v>
  <v type="int" >      101 </v>
  <v type="int" >       57 </v>
  <v type="int" >       63 </v>
  <v type="int" >       55 </v>
  <v type="int" >       61 </v>
  <v type="int" >       78 </v>
  <v type="int" >       96 </v>
  <v type="int" >       76 </v>
  <v type="int" >       94 </v>
  <v type="int" >       17 </v>
  <v type="int" >       20 </v>
  <v type="int" >       18 </v>
  <v type="int" >       21 </v>
  <v type="int" >       14 </v>
  <v type="int" >       23 </v>
  <v type="int" >       15 </v>
  <v type="int" >       24 </v>
  <v type="int" >        4 </v>
  <v type="int" >        7 </v>
  <v type="int" >       27 </v>
  <v type="int" >       45 </v>
  <v type="int" >       36 </v>
  <v type="int" >       42 </v>
  <v type="int" >       26 </v>
  <v type="int" >       44 </v>
  <v type="int" >       35 </v>
  <v type="int" >       41 </v>
  <v type="int" >       28 </v>
  <v type="int" >       46 </v>
  <v type="int" >       50 </v>
  <v type="int" >       68 </v>
  <v type="int" >       74 </v>
  <v type="int" >       92 </v>
  <v type="int" >       84 </v>
  <v type="int" >       90 </v>
  <v type="int" >       82 </v>
  <v type="int" >       88 </v>
  <v type="int" >      103 </v>
  <v type="int" >      106 </v>
  <v type="int" >       60 </v>
  <v type="int" >       66 </v>
  <v type="int" >       58 </v>
  <v type="int" >       64 </v>
  <v type="int" >        5 </v>
  <v type="int" >        6 </v>
  <v type="int" >        8 </v>
  <v type="int" >        9 </v>
  <v type="int" >       80 </v>
  <v type="int" >       86 </v>
  <v type="int" >       30 </v>
  <v type="int" >       48 </v>
  <v type="int" >       29 </v>
  <v type="int" >       47 </v>
  <v type="int" >       53 </v>
  <v type="int" >       71 </v>
  <v type="int" >       56 </v>
  <v type="int" >       62 </v>
  <v type="int" >      105 </v>
  <v type="int" >      108 </v>
  <v type="int" >      104 </v>
  <v type="int" >      107 </v>
  <v type="int" >       77 </v>
  <v type="int" >       95 </v>
  <v type="int" >       10 </v>
  <v type="int" >       83 </v>
  <v type="int" >       89 </v>
  <v type="int" >       59 </v>
  <v type="int" >       65 </v>
  <v type="int" >       11 </v>
  <v type="int" >       12 </v>
 </varray>
 <kpoints>
  <generation param="Gamma">
   <v type="int" name="divisions">       3        3        3 </v>
   <v name="usershift">      0.00000000       0.00000000       0.00000000 </v>
   <v name="genvec1">      0.33333333       0.00000000       0.00000000 </v>
   <v name="genvec2">      0.00000000       0.33333333      -0.00000000 </v>
   <v name="genvec3">      0.00000000      -0.00000000       0.33333333 </v>
   <v name="shift">      0.00000000       0.00000000       0.00000000 </v>
  </generation>
  <varray name="kpointlist" >
   <v>       0.00000000       0.00000000       0.00000000 </v>
   <v>       0.33333333       0.00000000       0.00000000 </v>
   <v>       0.00000000       0.33333333       0.00000000 </v>
   <v>       0.33333333       0.33333333       0.00000000 </v>
   <v>      -0.33333333       0.33333333       0.00000000 </v>
   <v>       0.00000000       0.00000000       0.33333333 </v>
   <v>       0.33333333       0.00000000       0.33333333 </v>
   <v>      -0.33333333       0.00000000       0.33333333 </v>
   <v>       0.00000000       0.33333333       0.33333333 </v>
   <v>       0.33333333       0.33333333       0.33333333 </v>
   <v>      -0.33333333       0.33333333       0.33333333 </v>
   <v>       0.00000000      -0.33333333       0.33333333 </v>
   <v>       0.33333333      -0.33333333       0.33333333 </v>
   <v>      -0.33333333      -0.33333333       0.33333333 </v>
  </varray>
  <varray name="weights" >
   <v>       0.03703704 </v>
   <v>       0.07407407 </v>
   <v>       0.07407407 </v>
   <v>       0.07407407 </v>
   <v>       0.07407407 </v>
   <v>       0.07407407 </v>
   <v>       0.07407407 </v>
   <v>       0.07407407 </v>
   <v>       0.07407407 </v>
   <v>       0.07407407 </v>
   <v>       0.07407407 </v>
   <v>       0.07407407 </v>
   <v>       0.07407407 </v>
   <v>       0.07407407 </v>
  </varray>
 </kpoints>
 <parameters>
  <separator name="general" >
   <i type="string" name="SYSTEM">unknown system</i>
   <i type="logical" name="LCOMPAT"> F  </i>
  </separator>
  <separator name="electronic" >
   <i type="string" name="PREC">accura</i>
   <i name="ENMAX">    650.00000000</i>
   <i name="ENAUG">    628.94500000</i>
   <i name="EDIFF">      0.00000001</i>
   <i type="int" name="IALGO">    38</i>
   <i type="int" name="IWAVPR">    10</i>
   <i type="int" name="NBANDS">   630</i>
   <i name="NELECT">    864.00000000</i>
   <i type="int" name="TURBO">     0</i>
   <i type="int" name="IRESTART">     0</i>
   <i type="int" name="NREBOOT">     0</i>
   <i type="int" name="NMIN">     0</i>
   <i name="EREF">      0.00000000</i>
   <separator name="electronic smearing" >
    <i type="int" name="ISMEAR">     0</i>
    <i name="SIGMA">      0.05000000</i>
    <i name="KSPACING">      0.50000000</i>
    <i type="logical" name="KGAMMA"> T  </i>
   </separator>
   <separator name="electronic projectors" >
    <i type="logical" name="LREAL"> F  </i>
    <v name="ROPT">      0.00000000      0.00000000      0.00000000      0.00000000</v>
    <i type="int" name="LMAXPAW">  -100</i>
    <i type="int" name="LMAXMIX">     4</i>
    <i type="logical" name="NLSPLINE"> F  </i>
   </separator>
   <separator name="electronic startup" >
    <i type="int" name="ISTART">     0</i>
    <i type="int" name="ICHARG">     2</i>
    <i type="int" name="INIWAV">     1</i>
   </separator>
   <separator name="electronic spin" >
    <i type="int" name="ISPIN">     2</i>
    <i type="logical" name="LNONCOLLINEAR"> F  </i>
    <v name="MAGMOM">      0.60000000      0.60000000      0.60000000      0.60000000      0.60000000      0.60000000      0.60000000      0.60000000      0.60000000      0.60000000      0.60000000      0.60000000      0.60000000      0.60000000      0.60000000      0.60000000      0.60000000      0.60000000      0.60000000      0.60000000
      0.60000000      0.60000000      0.60000000      0.60000000      0.60000000      0.60000000      0.60000000      0.60000000      0.60000000      0.60000000      0.60000000      0.60000000      0.60000000      0.60000000      0.60000000      0.60000000      0.60000000      0.60000000      0.60000000      0.60000000
      0.60000000      0.60000000      0.60000000      0.60000000      0.60000000      0.60000000      0.60000000      0.60000000      0.60000000      0.60000000      0.60000000      0.60000000      0.60000000      0.60000000      0.60000000      0.60000000      0.60000000      0.60000000      0.60000000      0.60000000
      0.60000000      0.60000000      0.60000000      0.60000000      0.60000000      0.60000000      0.60000000      0.60000000      0.60000000      0.60000000      0.60000000      0.60000000      5.00000000      5.00000000      5.00000000      5.00000000      5.00000000      5.00000000      5.00000000      5.00000000
      5.00000000      5.00000000      5.00000000      5.00000000      5.00000000      5.00000000      5.00000000      5.00000000      5.00000000      5.00000000      5.00000000      5.00000000      5.00000000      5.00000000      5.00000000      5.00000000      5.00000000      5.00000000      5.00000000      5.00000000
      5.00000000      5.00000000      5.00000000      5.00000000      5.00000000      5.00000000      5.00000000      5.00000000</v>
    <i name="NUPDOWN">     -1.00000000</i>
    <i type="logical" name="LSORBIT"> F  </i>
    <v name="SAXIS">      0.00000000      0.00000000      1.00000000</v>
    <i type="logical" name="LSPIRAL"> F  </i>
    <v name="QSPIRAL">      0.00000000      0.00000000      0.00000000</v>
    <i type="logical" name="LZEROZ"> F  </i>
   </separator>
   <separator name="electronic exchange-correlation" >
    <i type="logical" name="LASPH"> T  </i>
    <i type="logical" name="LMETAGGA"> F  </i>
   </separator>
   <separator name="electronic convergence" >
    <i type="int" name="NELM">   200</i>
    <i type="int" name="NELMDL">    -5</i>
    <i type="int" name="NELMIN">     8</i>
    <i name="ENINI">    650.00000000</i>
    <separator name="electronic convergence detail" >
     <i type="logical" name="LDIAG"> T  </i>
     <i type="logical" name="LSUBROT"> F  </i>
     <i name="WEIMIN">      0.00000000</i>
     <i name="EBREAK">      0.00000000</i>
     <i name="DEPER">      0.30000000</i>
     <i type="int" name="NRMM">     4</i>
     <i name="TIME">      0.40000000</i>
    </separator>
   </separator>
   <separator name="electronic mixer" >
    <i name="AMIX">      0.40000000</i>
    <i name="BMIX">      1.00000000</i>
    <i name="AMIN">      0.10000000</i>
    <i name="AMIX_MAG">      1.60000000</i>
    <i name="BMIX_MAG">      1.00000000</i>
    <separator name="electronic mixer details" >
     <i type="int" name="IMIX">     4</i>
     <i type="logical" name="MIXFIRST"> F  </i>
     <i type="int" name="MAXMIX">   -45</i>
     <i name="WC">    100.00000000</i>
     <i type="int" name="INIMIX">     1</i>
     <i type="int" name="MIXPRE">     1</i>
     <i type="int" name="MREMOVE">     5</i>
    </separator>
   </separator>
   <separator name="electronic dipolcorrection" >
    <i type="logical" name="LDIPOL"> F  </i>
    <i type="logical" name="LMONO"> F  </i>
    <i type="int" name="IDIPOL">     0</i>
    <i name="EPSILON">      1.00000000</i>
    <v name="DIPOL">   -100.00000000   -100.00000000   -100.00000000</v>
    <i name="EFIELD">      0.00000000</i>
   </separator>
  </separator>
  <separator name="grids" >
   <i type="int" name="NGX">    96</i>
   <i type="int" name="NGY">    96</i>
   <i type="int" name="NGZ">    96</i>
   <i type="int" name="NGXF">   192</i>
   <i type="int" name="NGYF">   192</i>
   <i type="int" name="NGZF">   192</i>
   <i type="logical" name="ADDGRID"> T  </i>
  </separator>
  <separator name="ionic" >
   <i type="int" name="NSW">     0</i>
   <i type="int" name="IBRION">    -1</i>
   <i type="int" name="MDALGO">     0</i>
   <i type="int" name="ISIF">     3</i>
   <i name="PSTRESS">      0.00000000</i>
   <i name="EDIFFG">      0.00000010</i>
   <i type="int" name="NFREE">     0</i>
   <i name="POTIM">      0.50000000</i>
   <i name="SMASS">     -3.00000000</i>
   <i name="SCALEE">      1.00000000</i>
  </separator>
  <separator name="ionic md" >
   <i name="TEBEG">      0.00010000</i>
   <i name="TEEND">      0.00010000</i>
   <i type="int" name="NBLOCK">     1</i>
   <i type="int" name="KBLOCK">     1</i>
   <i type="int" name="NPACO">   256</i>
   <i name="APACO">     16.00000000</i>
  </separator>
  <separator name="symmetry" >
   <i type="int" name="ISYM">     0</i>
   <i name="SYMPREC">      0.00001000</i>
  </separator>
  <separator name="dos" >
   <i type="int" name="LORBIT">     0</i>
   <v name="RWIGS">     -1.00000000     -1.00000000     -1.00000000     -1.00000000</v>
   <i type="int" name="NEDOS">   301</i>
   <i name="EMIN">     10.00000000</i>
   <i name="EMAX">    -10.00000000</i>
   <i name="EFERMI">      0.00000000</i>
  </separator>
  <separator name="writing" >
   <i type="int" name="NWRITE">     1</i>
   <i type="logical" name="LWAVE"> F  </i>
   <i type="logical" name="LDOWNSAMPLE"> F  </i>
   <i type="logical" name="LCHARG"> T  </i>
   <i type="logical" name="LPARD"> F  </i>
   <i type="logical" name="LVTOT"> F  </i>
   <i type="logical" name="LVHAR"> F  </i>
   <i type="logical" name="LELF"> F  </i>
   <i type="logical" name="LOPTICS"> F  </i>
   <v name="STM">      0.00000000      0.00000000      0.00000000      0.00000000      0.00000000      0.00000000      0.00000000</v>
  </separator>
  <separator name="performance" >
   <i type="int" name="NPAR">     1</i>
   <i type="int" name="NSIM">     4</i>
   <i type="int" name="NBLK">    -1</i>
   <i type="logical" name="LPLANE"> T  </i>
   <i type="logical" name="LSCALAPACK"> T  </i>
   <i type="logical" name="LSCAAWARE"> F  </i>
   <i type="logical" name="LSCALU"> F  </i>
   <i type="logical" name="LASYNC"> F  </i>
   <i type="logical" name="LORBITALREAL"> F  </i>
  </separator>
  <separator name="miscellaneous" >
   <i type="int" name="IDIOT">     3</i>
   <i type="int" name="ISPECIAL">     0</i>
   <i type="logical" name="LMUSIC"> F  </i>
   <v name="POMASS">      7.01000000     16.00000000     32.06600000     55.84700000</v>
   <v name="DARWINR">      0.00000000      0.00000000      0.00000000      0.00000000</v>
   <v name="DARWINV">      1.00000000      1.00000000      1.00000000      1.00000000</v>
   <i type="logical" name="LCORR"> T  </i>
  </separator>
  <i type="logical" name="GGA_COMPAT"> T  </i>
  <i type="logical" name="LBERRY"> F  </i>
  <i type="int" name="ICORELEVEL">     0</i>
  <i type="logical" name="LDAU"> T  </i>
  <v type="int" name="LDAUTYPE">     2</v>
  <v type="int" name="LDAUL">    -1</v>
  <v name="LDAUU">      0.00000000</v>
  <v name="LDAUJ">      0.00000000</v>
  <i type="int" name="LDAUPRINT">     0</i>
  <i type="int" name="I_CONSTRAINED_M">     0</i>
  <separator name="electronic exchange-correlation" >
   <i type="string" name="GGA">PE</i>
   <i type="int" name="VOSKOWN">     0</i>
   <i type="logical" name="LHFCALC"> F  </i>
   <i type="string" name="PRECFOCK"></i>
   <i type="logical" name="LSYMGRAD"> F  </i>
   <i type="logical" name="LHFONE"> F  </i>
   <i type="logical" name="LRHFCALC"> F  </i>
   <i type="logical" name="LTHOMAS"> F  </i>
   <i type="logical" name="LMODELHF"> F  </i>
   <i name="ENCUT4O">     -1.00000000</i>
   <i type="int" name="EXXOEP">     0</i>
   <i type="int" name="FOURORBIT">     0</i>
   <i name="AEXX">      0.00000000</i>
   <i name="HFALPHA">      0.00000000</i>
   <i name="MCALPHA">      0.00000000</i>
   <i name="ALDAX">      1.00000000</i>
   <i name="AGGAX">      1.00000000</i>
   <i name="ALDAC">      1.00000000</i>
   <i name="AGGAC">      1.00000000</i>
   <i type="int" name="NKREDX">     1</i>
   <i type="int" name="NKREDY">     1</i>
   <i type="int" name="NKREDZ">     1</i>
   <i type="logical" name="SHIFTRED"> F  </i>
   <i type="logical" name="ODDONLY"> F  </i>
   <i type="logical" name="EVENONLY"> F  </i>
   <i type="int" name="LMAXFOCK">     0</i>
   <i type="int" name="NMAXFOCKAE">     0</i>
   <i type="logical" name="LFOCKAEDFT"> F  </i>
   <i name="HFSCREEN">      0.00000000</i>
   <i name="HFSCREENC">      0.00000000</i>
   <i type="int" name="NBANDSGWLOW">     0</i>
  </separator>
  <separator name="vdW DFT" >
   <i type="logical" name="LUSE_VDW"> F  </i>
   <i name="Zab_VDW">     -0.84910000</i>
   <i name="PARAM1">      0.12340000</i>
   <i name="PARAM2">      1.00000000</i>
   <i name="PARAM3">      0.00000000</i>
  </separator>
  <separator name="model GW" >
   <i type="int" name="MODEL_GW">     0</i>
   <i name="MODEL_EPS0">      8.20404096</i>
   <i name="MODEL_ALPHA">      1.00000000</i>
  </separator>
  <separator name="linear response parameters" >
   <i type="logical" name="LEPSILON"> F  </i>
   <i type="logical" name="LRPA"> F  </i>
   <i type="logical" name="LNABLA"> F  </i>
   <i type="logical" name="LVEL"> F  </i>
   <i type="int" name="KINTER">     0</i>
   <i name="CSHIFT">      0.10000000</i>
   <i name="OMEGAMAX">     -1.00000000</i>
   <i name="DEG_THRESHOLD">      0.00200000</i>
   <i name="RTIME">     -0.10000000</i>
   <i name="WPLASMAI">      0.00000000</i>
   <v name="DFIELD">      0.00000000      0.00000000      0.00000000</v>
   <v name="WPLASMA">      0.00000000      0.00000000      0.00000000      0.00000000      0.00000000      0.00000000      0.00000000      0.00000000      0.00000000</v>
  </separator>
  <separator name="orbital magnetization" >
   <i type="logical" name="NUCIND"> F  </i>
   <v name="MAGPOS">      0.00000000      0.00000000      0.00000000</v>
   <i type="logical" name="LNICSALL"> T  </i>
   <i type="logical" name="ORBITALMAG"> F  </i>
   <i type="logical" name="LMAGBLOCH"> F  </i>
   <i type="logical" name="LCHIMAG"> F  </i>
   <i type="logical" name="LGAUGE"> T  </i>
   <i type="int" name="MAGATOM">     0</i>
   <v name="MAGDIPOL">      0.00000000      0.00000000      0.00000000</v>
   <v name="AVECCONST">      0.00000000      0.00000000      0.00000000</v>
  </separator>
  <separator name="response functions" >
   <i type="logical" name="LADDER"> F  </i>
   <i type="logical" name="LRPAFORCE"> F  </i>
   <i type="logical" name="LFXC"> F  </i>
   <i type="logical" name="LHARTREE"> T  </i>
   <i type="int" name="IBSE">     0</i>
   <v type="int" name="KPOINT">    -1     0     0     0</v>
   <i type="logical" name="LTCTE"> F  </i>
   <i type="logical" name="LTETE"> F  </i>
   <i type="logical" name="LTRIPLET"> F  </i>
   <i type="logical" name="LFXCEPS"> F  </i>
   <i type="logical" name="LFXHEG"> F  </i>
   <i type="int" name="NATURALO">     2</i>
   <i type="logical" name="L2ORDER"> F  </i>
   <i type="logical" name="LMP2LT"> F  </i>
   <i type="logical" name="LUSEW"> F  </i>
   <i name="ENCUTGW">     -2.00000000</i>
   <i name="ENCUTGWSOFT">     -2.00000000</i>
   <i name="ENCUTLF">     -1.00000000</i>
   <i type="int" name="LMAXMP2">    -1</i>
   <i name="SCISSOR">      0.00000000</i>
   <i type="int" name="NOMEGA">     0</i>
   <i type="int" name="NOMEGAR">     0</i>
   <i type="int" name="NBANDSGW">    -1</i>
   <i type="int" name="NBANDSO">    -1</i>
   <i type="int" name="NBANDSV">    -1</i>
   <i type="int" name="NELM">   200</i>
   <i type="int" name="NELMHF">     1</i>
   <i type="int" name="DIM">     3</i>
   <i type="int" name="ANTIRES">     0</i>
   <i name="OMEGAMAX">    -30.00000000</i>
   <i name="OMEGAMIN">    -30.00000000</i>
   <i name="OMEGATL">   -200.00000000</i>
   <i type="int" name="OMEGAGRID">   140</i>
   <i name="CSHIFT">     -0.10000000</i>
   <i type="logical" name="SELFENERGY"> F  </i>
   <i type="logical" name="LSPECTRAL"> F  </i>
   <i type="logical" name="LSPECTRALGW"> F  </i>
   <i type="logical" name="LSINGLES"> F  </i>
   <i type="logical" name="LFERMIGW"> F  </i>
   <i type="logical" name="ODDONLYGW"> F  </i>
   <i type="logical" name="EVENONLYGW"> F  </i>
   <i type="int" name="NKREDLFX">     1</i>
   <i type="int" name="NKREDLFY">     1</i>
   <i type="int" name="NKREDLFZ">     1</i>
   <i type="int" name="MAXMEM">  2800</i>
   <i type="int" name="TELESCOPE">     0</i>
   <i type="int" name="TAUPAR">     1</i>
   <i type="int" name="OMEGAPAR">    -1</i>
   <i name="LAMBDA">      1.00000000</i>
  </separator>
  <separator name="External order field" >
   <i name="OFIELD_KAPPA">      0.00000000</i>
   <v name="OFIELD_K">      0.00000000      0.00000000      0.00000000</v>
   <i name="OFIELD_Q6_NEAR">      0.00000000</i>
   <i name="OFIELD_Q6_FAR">      0.00000000</i>
   <i name="OFIELD_A">      0.00000000</i>
  </separator>
 </parameters>
 <atominfo>
  <atoms>     108 </atoms>
  <types>       4 </types>
  <array name="atoms" >
   <dimension dim="1">ion</dimension>
   <field type="string">element</field>
   <field type="int">atomtype</field>
   <set>
    <rc><c>Li</c><c>   1</c></rc>
    <rc><c>Li</c><c>   1</c></rc>
    <rc><c>Li</c><c>   1</c></rc>
    <rc><c>Li</c><c>   1</c></rc>
    <rc><c>Li</c><c>   1</c></rc>
    <rc><c>Li</c><c>   1</c></rc>
    <rc><c>Li</c><c>   1</c></rc>
    <rc><c>Li</c><c>   1</c></rc>
    <rc><c>Li</c><c>   1</c></rc>
    <rc><c>Li</c><c>   1</c></rc>
    <rc><c>Li</c><c>   1</c></rc>
    <rc><c>Li</c><c>   1</c></rc>
    <rc><c>Li</c><c>   1</c></rc>
    <rc><c>Li</c><c>   1</c></rc>
    <rc><c>Li</c><c>   1</c></rc>
    <rc><c>Li</c><c>   1</c></rc>
    <rc><c>Li</c><c>   1</c></rc>
    <rc><c>Li</c><c>   1</c></rc>
    <rc><c>Li</c><c>   1</c></rc>
    <rc><c>Li</c><c>   1</c></rc>
    <rc><c>Li</c><c>   1</c></rc>
    <rc><c>Li</c><c>   1</c></rc>
    <rc><c>Li</c><c>   1</c></rc>
    <rc><c>Li</c><c>   1</c></rc>
    <rc><c>O </c><c>   2</c></rc>
    <rc><c>O </c><c>   2</c></rc>
    <rc><c>O </c><c>   2</c></rc>
    <rc><c>O </c><c>   2</c></rc>
    <rc><c>O </c><c>   2</c></rc>
    <rc><c>O </c><c>   2</c></rc>
    <rc><c>O </c><c>   2</c></rc>
    <rc><c>O </c><c>   2</c></rc>
    <rc><c>O </c><c>   2</c></rc>
    <rc><c>O </c><c>   2</c></rc>
    <rc><c>O </c><c>   2</c></rc>
    <rc><c>O </c><c>   2</c></rc>
    <rc><c>O </c><c>   2</c></rc>
    <rc><c>O </c><c>   2</c></rc>
    <rc><c>O </c><c>   2</c></rc>
    <rc><c>O </c><c>   2</c></rc>
    <rc><c>O </c><c>   2</c></rc>
    <rc><c>O </c><c>   2</c></rc>
    <rc><c>O </c><c>   2</c></rc>
    <rc><c>O </c><c>   2</c></rc>
    <rc><c>O </c><c>   2</c></rc>
    <rc><c>O </c><c>   2</c></rc>
    <rc><c>O </c><c>   2</c></rc>
    <rc><c>O </c><c>   2</c></rc>
    <rc><c>S </c><c>   3</c></rc>
    <rc><c>S </c><c>   3</c></rc>
    <rc><c>S </c><c>   3</c></rc>
    <rc><c>S </c><c>   3</c></rc>
    <rc><c>S </c><c>   3</c></rc>
    <rc><c>S </c><c>   3</c></rc>
    <rc><c>S </c><c>   3</c></rc>
    <rc><c>S </c><c>   3</c></rc>
    <rc><c>S </c><c>   3</c></rc>
    <rc><c>S </c><c>   3</c></rc>
    <rc><c>S </c><c>   3</c></rc>
    <rc><c>S </c><c>   3</c></rc>
    <rc><c>S </c><c>   3</c></rc>
    <rc><c>S </c><c>   3</c></rc>
    <rc><c>S </c><c>   3</c></rc>
    <rc><c>S </c><c>   3</c></rc>
    <rc><c>S </c><c>   3</c></rc>
    <rc><c>S </c><c>   3</c></rc>
    <rc><c>S </c><c>   3</c></rc>
    <rc><c>S </c><c>   3</c></rc>
    <rc><c>S </c><c>   3</c></rc>
    <rc><c>S </c><c>   3</c></rc>
    <rc><c>S </c><c>   3</c></rc>
    <rc><c>S </c><c>   3</c></rc>
    <rc><c>Fe</c><c>   4</c></rc>
    <rc><c>Fe</c><c>   4</c></rc>
    <rc><c>Fe</c><c>   4</c></rc>
    <rc><c>Fe</c><c>   4</c></rc>
    <rc><c>Fe</c><c>   4</c></rc>
    <rc><c>Fe</c><c>   4</c></rc>
    <rc><c>Fe</c><c>   4</c></rc>
    <rc><c>Fe</c><c>   4</c></rc>
    <rc><c>Fe</c><c>   4</c></rc>
    <rc><c>Fe</c><c>   4</c></rc>
    <rc><c>Fe</c><c>   4</c></rc>
    <rc><c>Fe</c><c>   4</c></rc>
    <rc><c>Fe</c><c>   4</c></rc>
    <rc><c>Fe</c><c>   4</c></rc>
    <rc><c>Fe</c><c>   4</c></rc>
    <rc><c>Fe</c><c>   4</c></rc>
    <rc><c>Fe</c><c>   4</c></rc>
    <rc><c>Fe</c><c>   4</c></rc>
    <rc><c>Fe</c><c>   4</c></rc>
    <rc><c>Fe</c><c>   4</c></rc>
    <rc><c>Fe</c><c>   4</c></rc>
    <rc><c>Fe</c><c>   4</c></rc>
    <rc><c>Fe</c><c>   4</c></rc>
    <rc><c>Fe</c><c>   4</c></rc>
    <rc><c>Fe</c><c>   4</c></rc>
    <rc><c>Fe</c><c>   4</c></rc>
    <rc><c>Fe</c><c>   4</c></rc>
    <rc><c>Fe</c><c>   4</c></rc>
    <rc><c>Fe</c><c>   4</c></rc>
    <rc><c>Fe</c><c>   4</c></rc>
    <rc><c>Fe</c><c>   4</c></rc>
    <rc><c>Fe</c><c>   4</c></rc>
    <rc><c>Fe</c><c>   4</c></rc>
    <rc><c>Fe</c><c>   4</c></rc>
    <rc><c>Fe</c><c>   4</c></rc>
    <rc><c>Fe</c><c>   4</c></rc>
   </set>
  </array>
  <array name="atomtypes" >
   <dimension dim="1">type</dimension>
   <field type="int">atomspertype</field>
   <field type="string">element</field>
   <field>mass</field>
   <field>valence</field>
   <field type="string">pseudopotential</field>
   <set>
    <rc><c>  24</c><c>Li</c><c>      7.01000000</c><c>      3.00000000</c><c>  PAW_PBE Li_sv 10Sep2004               </c></rc>
    <rc><c>  24</c><c>O </c><c>     16.00000000</c><c>      6.00000000</c><c>  PAW_PBE O 08Apr2002                   </c></rc>
    <rc><c>  24</c><c>S </c><c>     32.06600000</c><c>      6.00000000</c><c>  PAW_PBE S 06Sep2000                   </c></rc>
    <rc><c>  36</c><c>Fe</c><c>     55.84700000</c><c>     14.00000000</c><c>  PAW_PBE Fe_pv 02Aug2007               </c></rc>
   </set>
  </array>
 </atominfo>
 <structure name="initialpos" >
  <crystal>
   <varray name="basis" >
    <v>      11.51036847       0.00000000       0.00000000 </v>
    <v>       0.00000000      11.32670916       0.12548940 </v>
    <v>       0.00000000      -0.29683152      11.32351444 </v>
   </varray>
   <i name="volume">   1476.72737236 </i>
   <varray name="rec_basis" >
    <v>       0.08687819       0.00000000       0.00000000 </v>
    <v>       0.00000000       0.08826126       0.00231366 </v>
    <v>       0.00000000      -0.00097813       0.08828616 </v>
   </varray>
  </crystal>
  <varray name="positions" >
   <v>       0.10513295       0.25000000       0.00000000 </v>
   <v>       0.43846628       0.25000000       0.00000000 </v>
   <v>       0.77179961       0.25000000       0.00000000 </v>
   <v>       0.10513295       0.75000000       0.00000000 </v>
   <v>       0.43846628       0.75000000       0.00000000 </v>
   <v>       0.77179961       0.75000000       0.00000000 </v>
   <v>       0.10513295       0.25000000       0.50000000 </v>
   <v>       0.43846628       0.25000000       0.50000000 </v>
   <v>       0.77179961       0.25000000       0.50000000 </v>
   <v>       0.10513295       0.75000000       0.50000000 </v>
   <v>       0.43846628       0.75000000       0.50000000 </v>
   <v>       0.77179961       0.75000000       0.50000000 </v>
   <v>       0.10513295       0.00000000       0.25000000 </v>
   <v>       0.43846628       0.00000000       0.25000000 </v>
   <v>       0.77179961       0.00000000       0.25000000 </v>
   <v>       0.10513295       0.50000000       0.25000000 </v>
   <v>       0.43846628       0.50000000       0.25000000 </v>
   <v>       0.77179961       0.50000000       0.25000000 </v>
   <v>       0.10513295       0.00000000       0.75000000 </v>
   <v>       0.43846628       0.00000000       0.75000000 </v>
   <v>       0.77179961       0.00000000       0.75000000 </v>
   <v>       0.10513295       0.50000000       0.75000000 </v>
   <v>       0.43846628       0.50000000       0.75000000 </v>
   <v>       0.77179961       0.50000000       0.75000000 </v>
   <v>       0.10614906       0.12527662       0.37472338 </v>
   <v>       0.43948239       0.12527662       0.37472338 </v>
   <v>       0.77281572       0.12527662       0.37472338 </v>
   <v>       0.10614906       0.62527662       0.37472338 </v>
   <v>       0.43948239       0.62527662       0.37472338 </v>
   <v>       0.77281572       0.62527662       0.37472338 </v>
   <v>       0.10614906       0.12527662       0.87472338 </v>
   <v>       0.43948239       0.12527662       0.87472338 </v>
   <v>       0.77281572       0.12527662       0.87472338 </v>
   <v>       0.10614906       0.62527662       0.87472338 </v>
   <v>       0.43948239       0.62527662       0.87472338 </v>
   <v>       0.77281572       0.62527662       0.87472338 </v>
   <v>       0.10614906       0.37472338       0.12527662 </v>
   <v>       0.43948239       0.37472338       0.12527662 </v>
   <v>       0.77281572       0.37472338       0.12527662 </v>
   <v>       0.10614906       0.87472338       0.12527662 </v>
   <v>       0.43948239       0.87472338       0.12527662 </v>
   <v>       0.77281572       0.87472338       0.12527662 </v>
   <v>       0.10614906       0.37472338       0.62527662 </v>
   <v>       0.43948239       0.37472338       0.62527662 </v>
   <v>       0.77281572       0.37472338       0.62527662 </v>
   <v>       0.10614906       0.87472338       0.62527662 </v>
   <v>       0.43948239       0.87472338       0.62527662 </v>
   <v>       0.77281572       0.87472338       0.62527662 </v>
   <v>       0.27366763       0.11809471       0.11809471 </v>
   <v>       0.60613218       0.11809471       0.11809471 </v>
   <v>       0.93946551       0.11809471       0.11809471 </v>
   <v>       0.27279884       0.61809471       0.11809471 </v>
   <v>       0.60613218       0.61809471       0.11809471 </v>
   <v>       0.93946551       0.61809471       0.11809471 </v>
   <v>       0.27279884       0.11809471       0.61809471 </v>
   <v>       0.60613218       0.11809471       0.61809471 </v>
   <v>       0.93946551       0.11809471       0.61809471 </v>
   <v>       0.27279884       0.61809471       0.61809471 </v>
   <v>       0.60613218       0.61809471       0.61809471 </v>
   <v>       0.93946551       0.61809471       0.61809471 </v>
   <v>       0.27279884       0.38190529       0.38190529 </v>
   <v>       0.60613218       0.38190529       0.38190529 </v>
   <v>       0.93946551       0.38190529       0.38190529 </v>
   <v>       0.27279884       0.88190529       0.38190529 </v>
   <v>       0.60613218       0.88190529       0.38190529 </v>
   <v>       0.93946551       0.88190529       0.38190529 </v>
   <v>       0.27279884       0.38190529       0.88190529 </v>
   <v>       0.60613218       0.38190529       0.88190529 </v>
   <v>       0.93946551       0.38190529       0.88190529 </v>
   <v>       0.27279884       0.88190529       0.88190529 </v>
   <v>       0.60613218       0.88190529       0.88190529 </v>
   <v>       0.93946551       0.88190529       0.88190529 </v>
   <v>       0.27287151       0.33907427       0.16092573 </v>
   <v>       0.60620484       0.33907427       0.16092573 </v>
   <v>       0.93953818       0.33907427       0.16092573 </v>
   <v>       0.27287151       0.83907427       0.16092573 </v>
   <v>       0.60620484       0.83907427       0.16092573 </v>
   <v>       0.93953818       0.83907427       0.16092573 </v>
   <v>       0.27287151       0.33907427       0.66092573 </v>
   <v>       0.60620484       0.33907427       0.66092573 </v>
   <v>       0.93953818       0.33907427       0.66092573 </v>
   <v>       0.27287151       0.83907427       0.66092573 </v>
   <v>       0.60620484       0.83907427       0.66092573 </v>
   <v>       0.93953818       0.83907427       0.66092573 </v>
   <v>       0.27287151       0.16092573       0.33907427 </v>
   <v>       0.60620484       0.16092573       0.33907427 </v>
   <v>       0.93953818       0.16092573       0.33907427 </v>
   <v>       0.27287151       0.66092573       0.33907427 </v>
   <v>       0.60620484       0.66092573       0.33907427 </v>
   <v>       0.93953818       0.66092573       0.33907427 </v>
   <v>       0.27287151       0.16092573       0.83907427 </v>
   <v>       0.60620484       0.16092573       0.83907427 </v>
   <v>       0.93953818       0.16092573       0.83907427 </v>
   <v>       0.27287151       0.66092573       0.83907427 </v>
   <v>       0.60620484       0.66092573       0.83907427 </v>
   <v>       0.93953818       0.66092573       0.83907427 </v>
   <v>       0.10731129       0.00000000       0.00000000 </v>
   <v>       0.44064462       0.00000000       0.00000000 </v>
   <v>       0.77397796       0.00000000       0.00000000 </v>
   <v>       0.10731129       0.50000000       0.00000000 </v>
   <v>       0.44064462       0.50000000       0.00000000 </v>
   <v>       0.77397796       0.50000000       0.00000000 </v>
   <v>       0.10731129       0.00000000       0.50000000 </v>
   <v>       0.44064462       0.00000000       0.50000000 </v>
   <v>       0.77397796       0.00000000       0.50000000 </v>
   <v>       0.10731129       0.50000000       0.50000000 </v>
   <v>       0.44064462       0.50000000       0.50000000 </v>
   <v>       0.77397796       0.50000000       0.50000000 </v>
  </varray>
 </structure>
 <calculation>
  <scstep>
   <time name="dav">  408.08  409.12</time>
   <time name="total">  411.68  412.73</time>
   <energy>
    <i name="alphaZ">   2671.99667194 </i>
    <i name="ewald"> -65588.32774799 </i>
    <i name="hartreedc"> -36916.02860660 </i>
    <i name="XCdc">   3880.55386772 </i>
    <i name="pawpsdc">  87409.98379221 </i>
    <i name="pawaedc"> -90654.48884115 </i>
    <i name="eentropy">     -0.02775111 </i>
    <i name="bandstr">   1718.53614068 </i>
    <i name="atom"> 110354.31518496 </i>
    <i name="e_fr_energy">  12876.51271068 </i>
    <i name="e_wo_entrp">  12876.54046178 </i>
    <i name="e_0_energy">  12876.52658623 </i>
   </energy>
  </scstep>
  <scstep>
   <time name="dav">  398.13  399.15</time>
   <time name="total">  398.14  399.16</time>
   <energy>
    <i name="e_fr_energy">   1532.84375621 </i>
    <i name="e_wo_entrp">   1532.91619594 </i>
    <i name="e_0_energy">   1532.87997607 </i>
   </energy>
  </scstep>
  <scstep>
   <time name="dav">  418.86  419.93</time>
   <time name="total">  418.87  419.95</time>
   <energy>
    <i name="e_fr_energy">   -433.42285134 </i>
    <i name="e_wo_entrp">   -433.35375444 </i>
    <i name="e_0_energy">   -433.38830289 </i>
   </energy>
  </scstep>
  <scstep>
   <time name="dav">  473.91  475.09</time>
   <time name="total">  473.93  475.11</time>
   <energy>
    <i name="e_fr_energy">   -646.89257216 </i>
    <i name="e_wo_entrp">   -646.82490761 </i>
    <i name="e_0_energy">   -646.85873989 </i>
   </energy>
  </scstep>
  <scstep>
   <time name="dav">  620.29  621.87</time>
   <time name="total">  629.81  631.41</time>
   <energy>
    <i name="e_fr_energy">   -664.75592268 </i>
    <i name="e_wo_entrp">   -664.66945333 </i>
    <i name="e_0_energy">   -664.71268801 </i>
   </energy>
  </scstep>
  <scstep>
   <time name="dav">  471.87  473.07</time>
   <time name="total">  484.92  486.15</time>
   <energy>
    <i name="e_fr_energy">   -558.91406239 </i>
    <i name="e_wo_entrp">   -558.82833095 </i>
    <i name="e_0_energy">   -558.87119667 </i>
   </energy>
  </scstep>
  <scstep>
   <time name="dav">  445.46  446.62</time>
   <time name="total">  458.12  459.30</time>
   <energy>
    <i name="e_fr_energy">   -581.86609155 </i>
    <i name="e_wo_entrp">   -581.82821962 </i>
    <i name="e_0_energy">   -581.84715558 </i>
   </energy>
  </scstep>
  <scstep>
   <time name="dav">  462.31  463.45</time>
   <time name="total">  475.27  476.43</time>
   <energy>
    <i name="e_fr_energy">   -590.25030740 </i>
    <i name="e_wo_entrp">   -590.25030740 </i>
    <i name="e_0_energy">   -590.25030740 </i>
   </energy>
  </scstep>
  <scstep>
   <time name="dav">  458.92  460.06</time>
   <time name="total">  472.17  473.35</time>
   <energy>
    <i name="e_fr_energy">   -597.84943733 </i>
    <i name="e_wo_entrp">   -597.84943733 </i>
    <i name="e_0_energy">   -597.84943733 </i>
   </energy>
  </scstep>
  <scstep>
   <time name="dav">  485.00  486.20</time>
   <time name="total">  497.55  498.78</time>
   <energy>
    <i name="e_fr_energy">   -601.05753877 </i>
    <i name="e_wo_entrp">   -601.05753877 </i>
    <i name="e_0_energy">   -601.05753877 </i>
   </energy>
  </scstep>
  <scstep>
   <time name="dav">  487.33  488.60</time>
   <time name="total">  500.49  501.81</time>
   <energy>
    <i name="e_fr_energy">   -601.86339361 </i>
    <i name="e_wo_entrp">   -601.86339361 </i>
    <i name="e_0_energy">   -601.86339361 </i>
   </energy>
  </scstep>
  <scstep>
   <time name="dav">  480.65  481.84</time>
   <time name="total">  492.87  494.09</time>
   <energy>
    <i name="e_fr_energy">   -601.92309182 </i>
    <i name="e_wo_entrp">   -601.92309182 </i>
    <i name="e_0_energy">   -601.92309182 </i>
   </energy>
  </scstep>
  <scstep>
   <time name="dav">  479.02  480.22</time>
   <time name="total">  491.11  492.33</time>
   <energy>
    <i name="e_fr_energy">   -601.95329419 </i>
    <i name="e_wo_entrp">   -601.95329419 </i>
    <i name="e_0_energy">   -601.95329419 </i>
   </energy>
  </scstep>
  <scstep>
   <time name="dav">  478.00  479.20</time>
   <time name="total">  490.71  491.94</time>
   <energy>
    <i name="e_fr_energy">   -601.95772287 </i>
    <i name="e_wo_entrp">   -601.95772287 </i>
    <i name="e_0_energy">   -601.95772287 </i>
   </energy>
  </scstep>
  <scstep>
   <time name="dav">  527.08  528.43</time>
   <time name="total">  539.55  540.93</time>
   <energy>
    <i name="e_fr_energy">   -601.95832240 </i>
    <i name="e_wo_entrp">   -601.95832240 </i>
    <i name="e_0_energy">   -601.95832240 </i>
   </energy>
  </scstep>
  <scstep>
   <time name="dav">  449.47  450.57</time>
   <time name="total">  462.72  463.87</time>
   <energy>
    <i name="e_fr_energy">   -601.95904017 </i>
    <i name="e_wo_entrp">   -601.95904017 </i>
    <i name="e_0_energy">   -601.95904017 </i>
   </energy>
  </scstep>
  <scstep>
   <time name="dav">  461.17  462.31</time>
   <time name="total">  474.14  475.31</time>
   <energy>
    <i name="e_fr_energy">   -601.95918492 </i>
    <i name="e_wo_entrp">   -601.95918492 </i>
    <i name="e_0_energy">   -601.95918492 </i>
   </energy>
  </scstep>
  <scstep>
   <time name="dav">  489.87  491.07</time>
   <time name="total">  502.40  503.63</time>
   <energy>
    <i name="e_fr_energy">   -601.95921146 </i>
    <i name="e_wo_entrp">   -601.95921146 </i>
    <i name="e_0_energy">   -601.95921146 </i>
   </energy>
  </scstep>
  <scstep>
   <time name="dav">  469.62  470.79</time>
   <time name="total">  482.14  483.34</time>
   <energy>
    <i name="e_fr_energy">   -601.95923098 </i>
    <i name="e_wo_entrp">   -601.95923098 </i>
    <i name="e_0_energy">   -601.95923098 </i>
   </energy>
  </scstep>
  <scstep>
   <time name="dav">  456.97  458.09</time>
   <time name="total">  469.28  470.43</time>
   <energy>
    <i name="e_fr_energy">   -601.95924235 </i>
    <i name="e_wo_entrp">   -601.95924235 </i>
    <i name="e_0_energy">   -601.95924235 </i>
   </energy>
  </scstep>
  <scstep>
   <time name="dav">  473.53  474.71</time>
   <time name="total">  485.94  487.16</time>
   <energy>
    <i name="e_fr_energy">   -601.95924775 </i>
    <i name="e_wo_entrp">   -601.95924775 </i>
    <i name="e_0_energy">   -601.95924775 </i>
   </energy>
  </scstep>
  <scstep>
   <time name="dav">  474.64  475.82</time>
   <time name="total">  486.97  488.17</time>
   <energy>
    <i name="e_fr_energy">   -601.95925008 </i>
    <i name="e_wo_entrp">   -601.95925008 </i>
    <i name="e_0_energy">   -601.95925008 </i>
   </energy>
  </scstep>
  <scstep>
   <time name="dav">  500.80  502.02</time>
   <time name="total">  513.03  514.27</time>
   <energy>
    <i name="e_fr_energy">   -601.95925220 </i>
    <i name="e_wo_entrp">   -601.95925220 </i>
    <i name="e_0_energy">   -601.95925220 </i>
   </energy>
  </scstep>
  <scstep>
   <time name="dav">  461.82  462.96</time>
   <time name="total">  474.18  475.35</time>
   <energy>
    <i name="e_fr_energy">   -601.95925375 </i>
    <i name="e_wo_entrp">   -601.95925375 </i>
    <i name="e_0_energy">   -601.95925375 </i>
   </energy>
  </scstep>
  <scstep>
   <time name="dav">  462.09  463.25</time>
   <time name="total">  474.61  475.81</time>
   <energy>
    <i name="e_fr_energy">   -601.95925532 </i>
    <i name="e_wo_entrp">   -601.95925532 </i>
    <i name="e_0_energy">   -601.95925532 </i>
   </energy>
  </scstep>
  <scstep>
   <time name="dav">  470.13  471.33</time>
   <time name="total">  482.48  483.71</time>
   <energy>
    <i name="e_fr_energy">   -601.95925761 </i>
    <i name="e_wo_entrp">   -601.95925761 </i>
    <i name="e_0_energy">   -601.95925761 </i>
   </energy>
  </scstep>
  <scstep>
   <time name="dav">  480.09  481.31</time>
   <time name="total">  492.61  493.86</time>
   <energy>
    <i name="e_fr_energy">   -601.95925984 </i>
    <i name="e_wo_entrp">   -601.95925984 </i>
    <i name="e_0_energy">   -601.95925984 </i>
   </energy>
  </scstep>
  <scstep>
   <time name="dav">  472.63  473.81</time>
   <time name="total">  485.92  487.14</time>
   <energy>
    <i name="e_fr_energy">   -601.95926096 </i>
    <i name="e_wo_entrp">   -601.95926096 </i>
    <i name="e_0_energy">   -601.95926096 </i>
   </energy>
  </scstep>
  <scstep>
   <time name="dav">  440.04  441.16</time>
   <time name="total">  452.53  453.68</time>
   <energy>
    <i name="e_fr_energy">   -601.95926140 </i>
    <i name="e_wo_entrp">   -601.95926140 </i>
    <i name="e_0_energy">   -601.95926140 </i>
   </energy>
  </scstep>
  <scstep>
   <time name="dav">  429.46  430.54</time>
   <time name="total">  441.96  443.06</time>
   <energy>
    <i name="e_fr_energy">   -601.95926163 </i>
    <i name="e_wo_entrp">   -601.95926163 </i>
    <i name="e_0_energy">   -601.95926163 </i>
   </energy>
  </scstep>
  <scstep>
   <time name="dav">  438.18  439.31</time>
   <time name="total">  450.82  451.97</time>
   <energy>
    <i name="e_fr_energy">   -601.95926176 </i>
    <i name="e_wo_entrp">   -601.95926176 </i>
    <i name="e_0_energy">   -601.95926176 </i>
   </energy>
  </scstep>
  <scstep>
   <time name="dav">  379.18  380.15</time>
   <time name="total">  391.69  392.69</time>
   <energy>
    <i name="e_fr_energy">   -601.95926183 </i>
    <i name="e_wo_entrp">   -601.95926183 </i>
    <i name="e_0_energy">   -601.95926183 </i>
   </energy>
  </scstep>
  <scstep>
   <time name="dav">  308.14  308.89</time>
   <time name="total">  320.68  321.47</time>
   <energy>
    <i name="e_fr_energy">   -601.95926184 </i>
    <i name="e_wo_entrp">   -601.95926184 </i>
    <i name="e_0_energy">   -601.95926184 </i>
   </energy>
  </scstep>
  <scstep>
   <time name="dav">  266.88  267.57</time>
   <time name="total">  279.51  280.24</time>
   <energy>
    <i name="e_fr_energy">   -601.95926185 </i>
    <i name="e_wo_entrp">   -601.95926185 </i>
    <i name="e_0_energy">   -601.95926185 </i>
   </energy>
  </scstep>
  <scstep>
   <time name="dav">  275.46  276.19</time>
   <time name="total">  278.94  279.68</time>
   <energy>
    <i name="alphaZ">   2671.99667194 </i>
    <i name="ewald"> -65588.32774799 </i>
    <i name="hartreedc"> -35898.46433097 </i>
    <i name="XCdc">   3842.04971816 </i>
    <i name="pawpsdc"> 106010.28318965 </i>
    <i name="pawaedc">-109344.76252890 </i>
    <i name="eentropy">     -0.00000000 </i>
    <i name="bandstr"> -12649.04941871 </i>
    <i name="atom"> 110354.31518496 </i>
    <i name="e_fr_energy">   -601.95926186 </i>
    <i name="e_wo_entrp">   -601.95926186 </i>
    <i name="e_0_energy">   -601.95926186 </i>
   </energy>
  </scstep>
  <structure>
   <crystal>
    <varray name="basis" >
     <v>      11.51036847       0.00000000       0.00000000 </v>
     <v>       0.00000000      11.32670916       0.12548940 </v>
     <v>       0.00000000      -0.29683152      11.32351444 </v>
    </varray>
    <i name="volume">   1476.72737236 </i>
    <varray name="rec_basis" >
     <v>       0.08687819       0.00000000       0.00000000 </v>
     <v>       0.00000000       0.08826126       0.00231366 </v>
     <v>       0.00000000      -0.00097813       0.08828616 </v>
    </varray>
   </crystal>
   <varray name="positions" >
    <v>       0.10513295       0.25000000       0.00000000 </v>
    <v>       0.43846628       0.25000000       0.00000000 </v>
    <v>       0.77179961       0.25000000       0.00000000 </v>
    <v>       0.10513295       0.75000000       0.00000000 </v>
    <v>       0.43846628       0.75000000       0.00000000 </v>
    <v>       0.77179961       0.75000000       0.00000000 </v>
    <v>       0.10513295       0.25000000       0.50000000 </v>
    <v>       0.43846628       0.25000000       0.50000000 </v>
    <v>       0.77179961       0.25000000       0.50000000 </v>
    <v>       0.10513295       0.75000000       0.50000000 </v>
    <v>       0.43846628       0.75000000       0.50000000 </v>
    <v>       0.77179961       0.75000000       0.50000000 </v>
    <v>       0.10513295       0.00000000       0.25000000 </v>
    <v>       0.43846628       0.00000000       0.25000000 </v>
    <v>       0.77179961       0.00000000       0.25000000 </v>
    <v>       0.10513295       0.50000000       0.25000000 </v>
    <v>       0.43846628       0.50000000       0.25000000 </v>
    <v>       0.77179961       0.50000000       0.25000000 </v>
    <v>       0.10513295       0.00000000       0.75000000 </v>
    <v>       0.43846628       0.00000000       0.75000000 </v>
    <v>       0.77179961       0.00000000       0.75000000 </v>
    <v>       0.10513295       0.50000000       0.75000000 </v>
    <v>       0.43846628       0.50000000       0.75000000 </v>
    <v>       0.77179961       0.50000000       0.75000000 </v>
    <v>       0.10614906       0.12527662       0.37472338 </v>
    <v>       0.43948239       0.12527662       0.37472338 </v>
    <v>       0.77281572       0.12527662       0.37472338 </v>
    <v>       0.10614906       0.62527662       0.37472338 </v>
    <v>       0.43948239       0.62527662       0.37472338 </v>
    <v>       0.77281572       0.62527662       0.37472338 </v>
    <v>       0.10614906       0.12527662       0.87472338 </v>
    <v>       0.43948239       0.12527662       0.87472338 </v>
    <v>       0.77281572       0.12527662       0.87472338 </v>
    <v>       0.10614906       0.62527662       0.87472338 </v>
    <v>       0.43948239       0.62527662       0.87472338 </v>
    <v>       0.77281572       0.62527662       0.87472338 </v>
    <v>       0.10614906       0.37472338       0.12527662 </v>
    <v>       0.43948239       0.37472338       0.12527662 </v>
    <v>       0.77281572       0.37472338       0.12527662 </v>
    <v>       0.10614906       0.87472338       0.12527662 </v>
    <v>       0.43948239       0.87472338       0.12527662 </v>
    <v>       0.77281572       0.87472338       0.12527662 </v>
    <v>       0.10614906       0.37472338       0.62527662 </v>
    <v>       0.43948239       0.37472338       0.62527662 </v>
    <v>       0.77281572       0.37472338       0.62527662 </v>
    <v>       0.10614906       0.87472338       0.62527662 </v>
    <v>       0.43948239       0.87472338       0.62527662 </v>
    <v>       0.77281572       0.87472338       0.62527662 </v>
    <v>       0.27366763       0.11809471       0.11809471 </v>
    <v>       0.60613218       0.11809471       0.11809471 </v>
    <v>       0.93946551       0.11809471       0.11809471 </v>
    <v>       0.27279884       0.61809471       0.11809471 </v>
    <v>       0.60613218       0.61809471       0.11809471 </v>
    <v>       0.93946551       0.61809471       0.11809471 </v>
    <v>       0.27279884       0.11809471       0.61809471 </v>
    <v>       0.60613218       0.11809471       0.61809471 </v>
    <v>       0.93946551       0.11809471       0.61809471 </v>
    <v>       0.27279884       0.61809471       0.61809471 </v>
    <v>       0.60613218       0.61809471       0.61809471 </v>
    <v>       0.93946551       0.61809471       0.61809471 </v>
    <v>       0.27279884       0.38190529       0.38190529 </v>
    <v>       0.60613218       0.38190529       0.38190529 </v>
    <v>       0.93946551       0.38190529       0.38190529 </v>
    <v>       0.27279884       0.88190529       0.38190529 </v>
    <v>       0.60613218       0.88190529       0.38190529 </v>
    <v>       0.93946551       0.88190529       0.38190529 </v>
    <v>       0.27279884       0.38190529       0.88190529 </v>
    <v>       0.60613218       0.38190529       0.88190529 </v>
    <v>       0.93946551       0.38190529       0.88190529 </v>
    <v>       0.27279884       0.88190529       0.88190529 </v>
    <v>       0.60613218       0.88190529       0.88190529 </v>
    <v>       0.93946551       0.88190529       0.88190529 </v>
    <v>       0.27287151       0.33907427       0.16092573 </v>
    <v>       0.60620484       0.33907427       0.16092573 </v>
    <v>       0.93953818       0.33907427       0.16092573 </v>
    <v>       0.27287151       0.83907427       0.16092573 </v>
    <v>       0.60620484       0.83907427       0.16092573 </v>
    <v>       0.93953818       0.83907427       0.16092573 </v>
    <v>       0.27287151       0.33907427       0.66092573 </v>
    <v>       0.60620484       0.33907427       0.66092573 </v>
    <v>       0.93953818       0.33907427       0.66092573 </v>
    <v>       0.27287151       0.83907427       0.66092573 </v>
    <v>       0.60620484       0.83907427       0.66092573 </v>
    <v>       0.93953818       0.83907427       0.66092573 </v>
    <v>       0.27287151       0.16092573       0.33907427 </v>
    <v>       0.60620484       0.16092573       0.33907427 </v>
    <v>       0.93953818       0.16092573       0.33907427 </v>
    <v>       0.27287151       0.66092573       0.33907427 </v>
    <v>       0.60620484       0.66092573       0.33907427 </v>
    <v>       0.93953818       0.66092573       0.33907427 </v>
    <v>       0.27287151       0.16092573       0.83907427 </v>
    <v>       0.60620484       0.16092573       0.83907427 </v>
    <v>       0.93953818       0.16092573       0.83907427 </v>
    <v>       0.27287151       0.66092573       0.83907427 </v>
    <v>       0.60620484       0.66092573       0.83907427 </v>
    <v>       0.93953818       0.66092573       0.83907427 </v>
    <v>       0.10731129       0.00000000       0.00000000 </v>
    <v>       0.44064462       0.00000000       0.00000000 </v>
    <v>       0.77397796       0.00000000       0.00000000 </v>
    <v>       0.10731129       0.50000000       0.00000000 </v>
    <v>       0.44064462       0.50000000       0.00000000 </v>
    <v>       0.77397796       0.50000000       0.00000000 </v>
    <v>       0.10731129       0.00000000       0.50000000 </v>
    <v>       0.44064462       0.00000000       0.50000000 </v>
    <v>       0.77397796       0.00000000       0.50000000 </v>
    <v>       0.10731129       0.50000000       0.50000000 </v>
    <v>       0.44064462       0.50000000       0.50000000 </v>
    <v>       0.77397796       0.50000000       0.50000000 </v>
   </varray>
  </structure>
  <varray name="forces" >
   <v>       0.01812276       0.00112871      -0.00104617 </v>
   <v>       0.01832965      -0.00099042       0.00094252 </v>
   <v>       0.01735601      -0.00000739       0.00000608 </v>
   <v>       0.01841427      -0.00037165      -0.00037051 </v>
   <v>       0.01842413       0.00037483       0.00036761 </v>
   <v>       0.01784502       0.00000136       0.00000009 </v>
   <v>       0.01833079       0.00035147       0.00037606 </v>
   <v>       0.01833290      -0.00035314      -0.00038271 </v>
   <v>       0.01788961       0.00000060       0.00000149 </v>
   <v>       0.01837213      -0.00003397       0.00000826 </v>
   <v>       0.01837299       0.00003111      -0.00000830 </v>
   <v>       0.01794954       0.00000023      -0.00000018 </v>
   <v>       0.01812696      -0.00108925       0.00109087 </v>
   <v>       0.01833180       0.00097621      -0.00095458 </v>
   <v>       0.01735747       0.00000824      -0.00000519 </v>
   <v>       0.01833129       0.00036516       0.00036653 </v>
   <v>       0.01833103      -0.00037129      -0.00036763 </v>
   <v>       0.01789426      -0.00000161      -0.00000042 </v>
   <v>       0.01841926      -0.00035729      -0.00038674 </v>
   <v>       0.01843002       0.00035577       0.00038773 </v>
   <v>       0.01784725       0.00000117       0.00000061 </v>
   <v>       0.01837460       0.00001088      -0.00003330 </v>
   <v>       0.01837753      -0.00000855       0.00003133 </v>
   <v>       0.01795456      -0.00000051       0.00000085 </v>
   <v>       0.00335055      -0.00189654      -0.00174497 </v>
   <v>       0.00335416      -0.00267775       0.00703081 </v>
   <v>       0.00292832      -0.00227768       0.00264083 </v>
   <v>       0.00102454      -0.00224911       0.00256538 </v>
   <v>       0.00102062      -0.00230836       0.00269888 </v>
   <v>       0.00196032      -0.00228095       0.00263134 </v>
   <v>       0.00357991      -0.00310252       0.00878321 </v>
   <v>       0.00353742      -0.00144000      -0.00354043 </v>
   <v>       0.00295094      -0.00227993       0.00262996 </v>
   <v>       0.00099000      -0.00236392       0.00277100 </v>
   <v>       0.00097606      -0.00219438       0.00249226 </v>
   <v>       0.00208710      -0.00228406       0.00263090 </v>
   <v>       0.00336594      -0.00210067      -0.00240976 </v>
   <v>       0.00337581       0.00668854      -0.00286666 </v>
   <v>       0.00293255       0.00228163      -0.00263568 </v>
   <v>       0.00358014       0.00845791      -0.00322528 </v>
   <v>       0.00353784      -0.00392269      -0.00202519 </v>
   <v>       0.00295790       0.00228015      -0.00263035 </v>
   <v>       0.00101830       0.00221058      -0.00260049 </v>
   <v>       0.00101602       0.00235061      -0.00265952 </v>
   <v>       0.00196421       0.00228237      -0.00263166 </v>
   <v>       0.00099476       0.00241614      -0.00271721 </v>
   <v>       0.00098447       0.00213691      -0.00255049 </v>
   <v>       0.00208712       0.00228022      -0.00263243 </v>
   <v>      -0.03021536       0.00360371       0.00473418 </v>
   <v>       0.02282692       0.00405120       0.00520044 </v>
   <v>       0.02274433       0.00368538       0.00481867 </v>
   <v>       0.01569520       0.00387736       0.00501098 </v>
   <v>       0.01673067       0.00375997       0.00498282 </v>
   <v>       0.01673155       0.00397943       0.00503613 </v>
   <v>       0.01569214       0.00386963       0.00501555 </v>
   <v>       0.01672882       0.00384644       0.00489774 </v>
   <v>       0.01672877       0.00389322       0.00512183 </v>
   <v>       0.01620331       0.00387054       0.00500881 </v>
   <v>       0.01639249       0.00381642       0.00495254 </v>
   <v>       0.01639491       0.00392684       0.00507060 </v>
   <v>       0.01508320      -0.00386820      -0.00500731 </v>
   <v>       0.01659529      -0.00352050      -0.00464440 </v>
   <v>       0.01659643      -0.00421751      -0.00537282 </v>
   <v>       0.01546377      -0.00385851      -0.00502042 </v>
   <v>       0.01668198      -0.00418297      -0.00460224 </v>
   <v>       0.01668264      -0.00356314      -0.00542120 </v>
   <v>       0.01546042      -0.00388145      -0.00499808 </v>
   <v>       0.01667801      -0.00345334      -0.00531072 </v>
   <v>       0.01668038      -0.00429100      -0.00471669 </v>
   <v>       0.01522164      -0.00386735      -0.00500923 </v>
   <v>       0.01646063      -0.00438685      -0.00554898 </v>
   <v>       0.01646365      -0.00334781      -0.00446701 </v>
   <v>      -0.01691876      -0.00579870       0.00585405 </v>
   <v>      -0.02290887      -0.00662934       0.00562491 </v>
   <v>      -0.02290075      -0.00490839       0.00608712 </v>
   <v>      -0.01804729      -0.00577728       0.00586448 </v>
   <v>      -0.02314954      -0.00531185       0.00560747 </v>
   <v>      -0.02316186      -0.00621630       0.00610926 </v>
   <v>      -0.02133329      -0.00576560       0.00585257 </v>
   <v>      -0.02162738      -0.00591798       0.00598262 </v>
   <v>      -0.02162527      -0.00561417       0.00573134 </v>
   <v>      -0.02126921      -0.00576534       0.00585813 </v>
   <v>      -0.02165203      -0.00574931       0.00600870 </v>
   <v>      -0.02165181      -0.00578011       0.00570899 </v>
   <v>      -0.01689208       0.00576271      -0.00589240 </v>
   <v>      -0.02289663       0.00556315      -0.00673252 </v>
   <v>      -0.02289755       0.00595973      -0.00499487 </v>
   <v>      -0.02133838       0.00576283      -0.00585714 </v>
   <v>      -0.02161959       0.00589731      -0.00600339 </v>
   <v>      -0.02161724       0.00563113      -0.00571338 </v>
   <v>      -0.01805336       0.00576955      -0.00587264 </v>
   <v>      -0.02314576       0.00549390      -0.00541926 </v>
   <v>      -0.02315322       0.00603167      -0.00630010 </v>
   <v>      -0.02126614       0.00576431      -0.00585787 </v>
   <v>      -0.02164591       0.00591274      -0.00583561 </v>
   <v>      -0.02165043       0.00561704      -0.00588106 </v>
   <v>      -0.02295682       0.00049717       0.00051299 </v>
   <v>      -0.02333153      -0.00020216      -0.00020679 </v>
   <v>      -0.03034531       0.00000338       0.00000361 </v>
   <v>      -0.02840856       0.00078847      -0.00074992 </v>
   <v>      -0.02841235      -0.00078848       0.00075462 </v>
   <v>      -0.02942657      -0.00000199       0.00000018 </v>
   <v>      -0.02840560      -0.00077549       0.00075540 </v>
   <v>      -0.02841044       0.00078165      -0.00075791 </v>
   <v>      -0.02943026      -0.00000060       0.00000041 </v>
   <v>      -0.02849290       0.00001486       0.00002076 </v>
   <v>      -0.02849104      -0.00001943      -0.00002291 </v>
   <v>      -0.02927890       0.00000222       0.00000023 </v>
  </varray>
  <varray name="stress" >
   <v>      -2.55791357      -0.00863797      -0.00901740 </v>
   <v>      -0.00865166      -1.73083037       0.54461321 </v>
   <v>      -0.00904914       0.61405862      -1.65647047 </v>
  </varray>
  <energy>
   <i name="e_fr_energy">   -601.95926186 </i>
   <i name="e_wo_entrp">   -601.95926186 </i>
   <i name="e_0_energy">     -0.00000000 </i>
  </energy>
  <time name="totalsc">16872.4216914.80</time>
  <eigenvalues>
   <array>
    <dimension dim="1">band</dimension>
    <dimension dim="2">kpoint</dimension>
    <dimension dim="3">spin</dimension>
    <field>eigene</field>
    <field>occ</field>
    <set>
     <set comment="spin 1">
      <set comment="kpoint 1">
       <r>  -51.3607    1.0000 </r>
       <r>  -51.3604    1.0000 </r>
       <r>  -51.3603    1.0000 </r>
       <r>  -51.3601    1.0000 </r>
       <r>  -51.3598    1.0000 </r>
       <r>  -51.3597    1.0000 </r>
       <r>  -51.3596    1.0000 </r>
       <r>  -51.3595    1.0000 </r>
       <r>  -51.3588    1.0000 </r>
       <r>  -51.3585    1.0000 </r>
       <r>  -51.3584    1.0000 </r>
       <r>  -51.3582    1.0000 </r>
       <r>  -51.3582    1.0000 </r>
       <r>  -51.3581    1.0000 </r>
       <r>  -51.3581    1.0000 </r>
       <r>  -51.3579    1.0000 </r>
       <r>  -51.3578    1.0000 </r>
       <r>  -51.3577    1.0000 </r>
       <r>  -51.3576    1.0000 </r>
       <r>  -51.3576    1.0000 </r>
       <r>  -51.3563    1.0000 </r>
       <r>  -51.3562    1.0000 </r>
       <r>  -51.3562    1.0000 </r>
       <r>  -51.3560    1.0000 </r>
       <r>  -51.0740    1.0000 </r>
       <r>  -51.0711    1.0000 </r>
       <r>  -51.0711    1.0000 </r>
       <r>  -51.0706    1.0000 </r>
       <r>  -51.0704    1.0000 </r>
       <r>  -51.0704    1.0000 </r>
       <r>  -51.0704    1.0000 </r>
       <r>  -51.0704    1.0000 </r>
       <r>  -51.0702    1.0000 </r>
       <r>  -51.0698    1.0000 </r>
       <r>  -51.0698    1.0000 </r>
       <r>  -51.0669    1.0000 </r>
       <r>  -50.1470    1.0000 </r>
       <r>  -50.1467    1.0000 </r>
       <r>  -50.1466    1.0000 </r>
       <r>  -50.1463    1.0000 </r>
       <r>  -50.1461    1.0000 </r>
       <r>  -50.1460    1.0000 </r>
       <r>  -50.1460    1.0000 </r>
       <r>  -50.1458    1.0000 </r>
       <r>  -50.1457    1.0000 </r>
       <r>  -50.1454    1.0000 </r>
       <r>  -50.1454    1.0000 </r>
       <r>  -50.1450    1.0000 </r>
       <r>  -50.1446    1.0000 </r>
       <r>  -50.1442    1.0000 </r>
       <r>  -50.1441    1.0000 </r>
       <r>  -50.1439    1.0000 </r>
       <r>  -50.1437    1.0000 </r>
       <r>  -50.1436    1.0000 </r>
       <r>  -50.1435    1.0000 </r>
       <r>  -50.1434    1.0000 </r>
       <r>  -50.1432    1.0000 </r>
       <r>  -50.1429    1.0000 </r>
       <r>  -50.1429    1.0000 </r>
       <r>  -50.1425    1.0000 </r>
       <r>  -49.8386    1.0000 </r>
       <r>  -49.8382    1.0000 </r>
       <r>  -49.8381    1.0000 </r>
       <r>  -49.8379    1.0000 </r>
       <r>  -49.8376    1.0000 </r>
       <r>  -49.8376    1.0000 </r>
       <r>  -49.8375    1.0000 </r>
       <r>  -49.8375    1.0000 </r>
       <r>  -49.8372    1.0000 </r>
       <r>  -49.8370    1.0000 </r>
       <r>  -49.8369    1.0000 </r>
       <r>  -49.8365    1.0000 </r>
       <r>  -49.8135    1.0000 </r>
       <r>  -49.8131    1.0000 </r>
       <r>  -49.8130    1.0000 </r>
       <r>  -49.8128    1.0000 </r>
       <r>  -49.8125    1.0000 </r>
       <r>  -49.8125    1.0000 </r>
       <r>  -49.8124    1.0000 </r>
       <r>  -49.8124    1.0000 </r>
       <r>  -49.8121    1.0000 </r>
       <r>  -49.8119    1.0000 </r>
       <r>  -49.8118    1.0000 </r>
       <r>  -49.8114    1.0000 </r>
       <r>  -49.7062    1.0000 </r>
       <r>  -49.7043    1.0000 </r>
       <r>  -49.7043    1.0000 </r>
       <r>  -49.7039    1.0000 </r>
       <r>  -49.7037    1.0000 </r>
       <r>  -49.7037    1.0000 </r>
       <r>  -49.7037    1.0000 </r>
       <r>  -49.7037    1.0000 </r>
       <r>  -49.7035    1.0000 </r>
       <r>  -49.7031    1.0000 </r>
       <r>  -49.7031    1.0000 </r>
       <r>  -49.7011    1.0000 </r>
       <r>  -49.5867    1.0000 </r>
       <r>  -49.5830    1.0000 </r>
       <r>  -49.5830    1.0000 </r>
       <r>  -49.5827    1.0000 </r>
       <r>  -49.5825    1.0000 </r>
       <r>  -49.5824    1.0000 </r>
       <r>  -49.5824    1.0000 </r>
       <r>  -49.5823    1.0000 </r>
       <r>  -49.5818    1.0000 </r>
       <r>  -49.5816    1.0000 </r>
       <r>  -49.5816    1.0000 </r>
       <r>  -49.5780    1.0000 </r>
       <r>  -40.1318    1.0000 </r>
       <r>  -40.1314    1.0000 </r>
       <r>  -40.1285    1.0000 </r>
       <r>  -40.1283    1.0000 </r>
       <r>  -40.1282    1.0000 </r>
       <r>  -40.1281    1.0000 </r>
       <r>  -40.1280    1.0000 </r>
       <r>  -40.1278    1.0000 </r>
       <r>  -40.1277    1.0000 </r>
       <r>  -40.1276    1.0000 </r>
       <r>  -40.1276    1.0000 </r>
       <r>  -40.1275    1.0000 </r>
       <r>  -40.1275    1.0000 </r>
       <r>  -40.1273    1.0000 </r>
       <r>  -40.1273    1.0000 </r>
       <r>  -40.1273    1.0000 </r>
       <r>  -40.1271    1.0000 </r>
       <r>  -40.1269    1.0000 </r>
       <r>  -40.1269    1.0000 </r>
       <r>  -40.1267    1.0000 </r>
       <r>  -40.1266    1.0000 </r>
       <r>  -40.1265    1.0000 </r>
       <r>  -40.1234    1.0000 </r>
       <r>  -40.1231    1.0000 </r>
       <r>  -13.5839    1.0000 </r>
       <r>  -13.5513    1.0000 </r>
       <r>  -13.5489    1.0000 </r>
       <r>  -13.5489    1.0000 </r>
       <r>  -13.4233    1.0000 </r>
       <r>  -13.4200    1.0000 </r>
       <r>  -13.4198    1.0000 </r>
       <r>  -13.4192    1.0000 </r>
       <r>  -13.4181    1.0000 </r>
       <r>  -13.3849    1.0000 </r>
       <r>  -13.3848    1.0000 </r>
       <r>  -13.3836    1.0000 </r>
       <r>  -13.3835    1.0000 </r>
       <r>  -13.3762    1.0000 </r>
       <r>  -13.3750    1.0000 </r>
       <r>  -13.3738    1.0000 </r>
       <r>  -13.2593    1.0000 </r>
       <r>  -13.2580    1.0000 </r>
       <r>  -13.2470    1.0000 </r>
       <r>  -13.2469    1.0000 </r>
       <r>  -13.2458    1.0000 </r>
       <r>  -13.2457    1.0000 </r>
       <r>  -13.2079    1.0000 </r>
       <r>  -13.2067    1.0000 </r>
       <r>   -7.5294    1.0000 </r>
       <r>   -7.3724    1.0000 </r>
       <r>   -7.3718    1.0000 </r>
       <r>   -7.3707    1.0000 </r>
       <r>   -7.3589    1.0000 </r>
       <r>   -7.3588    1.0000 </r>
       <r>   -7.2286    1.0000 </r>
       <r>   -7.2286    1.0000 </r>
       <r>   -7.1889    1.0000 </r>
       <r>   -7.1193    1.0000 </r>
       <r>   -7.1186    1.0000 </r>
       <r>   -7.1180    1.0000 </r>
       <r>   -7.1173    1.0000 </r>
       <r>   -7.0885    1.0000 </r>
       <r>   -7.0879    1.0000 </r>
       <r>   -7.0873    1.0000 </r>
       <r>   -7.0868    1.0000 </r>
       <r>   -7.0715    1.0000 </r>
       <r>   -7.0702    1.0000 </r>
       <r>   -7.0490    1.0000 </r>
       <r>   -7.0404    1.0000 </r>
       <r>   -7.0393    1.0000 </r>
       <r>   -6.8944    1.0000 </r>
       <r>   -6.8933    1.0000 </r>
       <r>   -2.0680    1.0000 </r>
       <r>   -2.0678    1.0000 </r>
       <r>   -2.0284    1.0000 </r>
       <r>   -2.0283    1.0000 </r>
       <r>   -2.0276    1.0000 </r>
       <r>   -2.0276    1.0000 </r>
       <r>   -2.0173    1.0000 </r>
       <r>   -2.0165    1.0000 </r>
       <r>   -2.0107    1.0000 </r>
       <r>   -2.0105    1.0000 </r>
       <r>   -1.9485    1.0000 </r>
       <r>   -1.9477    1.0000 </r>
       <r>   -1.9344    1.0000 </r>
       <r>   -1.9343    1.0000 </r>
       <r>   -1.9340    1.0000 </r>
       <r>   -1.9340    1.0000 </r>
       <r>   -1.7721    1.0000 </r>
       <r>   -1.7664    1.0000 </r>
       <r>   -1.6802    1.0000 </r>
       <r>   -1.6801    1.0000 </r>
       <r>   -1.4538    1.0000 </r>
       <r>   -1.4538    1.0000 </r>
       <r>   -1.4105    1.0000 </r>
       <r>   -1.3702    1.0000 </r>
       <r>   -1.2348    1.0000 </r>
       <r>   -1.2347    1.0000 </r>
       <r>   -1.2340    1.0000 </r>
       <r>   -1.2339    1.0000 </r>
       <r>   -1.2153    1.0000 </r>
       <r>   -1.2057    1.0000 </r>
       <r>   -1.1369    1.0000 </r>
       <r>   -1.1361    1.0000 </r>
       <r>   -1.1344    1.0000 </r>
       <r>   -1.1337    1.0000 </r>
       <r>   -1.1187    1.0000 </r>
       <r>   -1.1186    1.0000 </r>
       <r>   -1.0807    1.0000 </r>
       <r>   -1.0668    1.0000 </r>
       <r>   -1.0658    1.0000 </r>
       <r>   -1.0570    1.0000 </r>
       <r>   -1.0541    1.0000 </r>
       <r>   -1.0536    1.0000 </r>
       <r>   -0.9811    1.0000 </r>
       <r>   -0.9806    1.0000 </r>
       <r>   -0.9651    1.0000 </r>
       <r>   -0.9649    1.0000 </r>
       <r>   -0.9358    1.0000 </r>
       <r>   -0.9358    1.0000 </r>
       <r>   -0.9353    1.0000 </r>
       <r>   -0.9243    1.0000 </r>
       <r>   -0.9235    1.0000 </r>
       <r>   -0.9130    1.0000 </r>
       <r>   -0.9127    1.0000 </r>
       <r>   -0.9122    1.0000 </r>
       <r>   -0.9120    1.0000 </r>
       <r>   -0.8715    1.0000 </r>
       <r>   -0.8714    1.0000 </r>
       <r>   -0.8706    1.0000 </r>
       <r>   -0.8705    1.0000 </r>
       <r>   -0.8665    1.0000 </r>
       <r>   -0.8658    1.0000 </r>
       <r>   -0.8420    1.0000 </r>
       <r>   -0.8410    1.0000 </r>
       <r>   -0.7489    1.0000 </r>
       <r>   -0.7401    1.0000 </r>
       <r>   -0.6426    1.0000 </r>
       <r>   -0.6422    1.0000 </r>
       <r>   -0.6419    1.0000 </r>
       <r>   -0.6415    1.0000 </r>
       <r>   -0.6094    1.0000 </r>
       <r>   -0.6090    1.0000 </r>
       <r>   -0.5940    1.0000 </r>
       <r>   -0.5936    1.0000 </r>
       <r>   -0.5931    1.0000 </r>
       <r>   -0.5927    1.0000 </r>
       <r>   -0.5737    1.0000 </r>
       <r>   -0.5731    1.0000 </r>
       <r>   -0.5261    1.0000 </r>
       <r>   -0.4642    1.0000 </r>
       <r>   -0.4642    1.0000 </r>
       <r>   -0.4640    1.0000 </r>
       <r>   -0.4640    1.0000 </r>
       <r>   -0.4352    1.0000 </r>
       <r>   -0.4255    1.0000 </r>
       <r>   -0.3145    1.0000 </r>
       <r>   -0.3139    1.0000 </r>
       <r>   -0.2861    1.0000 </r>
       <r>   -0.2860    1.0000 </r>
       <r>   -0.2398    1.0000 </r>
       <r>   -0.2398    1.0000 </r>
       <r>   -0.2369    1.0000 </r>
       <r>   -0.2358    1.0000 </r>
       <r>   -0.2349    1.0000 </r>
       <r>   -0.2093    1.0000 </r>
       <r>   -0.2042    1.0000 </r>
       <r>   -0.2041    1.0000 </r>
       <r>   -0.1421    1.0000 </r>
       <r>   -0.1354    1.0000 </r>
       <r>   -0.1352    1.0000 </r>
       <r>   -0.1349    1.0000 </r>
       <r>   -0.1347    1.0000 </r>
       <r>   -0.1283    1.0000 </r>
       <r>   -0.1280    1.0000 </r>
       <r>   -0.0438    1.0000 </r>
       <r>   -0.0435    1.0000 </r>
       <r>    0.0021    1.0000 </r>
       <r>    0.0026    1.0000 </r>
       <r>    0.0246    1.0000 </r>
       <r>    0.0254    1.0000 </r>
       <r>    0.1140    1.0000 </r>
       <r>    0.1143    1.0000 </r>
       <r>    0.1250    1.0000 </r>
       <r>    0.1253    1.0000 </r>
       <r>    0.1256    1.0000 </r>
       <r>    0.1258    1.0000 </r>
       <r>    0.1526    1.0000 </r>
       <r>    0.1529    1.0000 </r>
       <r>    0.1596    1.0000 </r>
       <r>    0.2007    1.0000 </r>
       <r>    0.2011    1.0000 </r>
       <r>    0.2011    1.0000 </r>
       <r>    0.2014    1.0000 </r>
       <r>    0.2019    1.0000 </r>
       <r>    0.2020    1.0000 </r>
       <r>    0.2381    1.0000 </r>
       <r>    0.2536    1.0000 </r>
       <r>    0.2547    1.0000 </r>
       <r>    0.2636    1.0000 </r>
       <r>    0.2637    1.0000 </r>
       <r>    0.3137    1.0000 </r>
       <r>    0.3144    1.0000 </r>
       <r>    0.3161    1.0000 </r>
       <r>    0.3459    1.0000 </r>
[...]
       <r>   -43.3002     0.0000   108.0000 </r>
       <r>   -43.0586     0.0000   108.0000 </r>
       <r>   -42.8170     0.0000   108.0000 </r>
       <r>   -42.5754     0.0000   108.0000 </r>
       <r>   -42.3338     0.0000   108.0000 </r>
       <r>   -42.0922     0.0000   108.0000 </r>
       <r>   -41.8506     0.0000   108.0000 </r>
       <r>   -41.6091     0.0000   108.0000 </r>
       <r>   -41.3675     0.0000   108.0000 </r>
       <r>   -41.1259     0.0000   108.0000 </r>
       <r>   -40.8843     0.0000   108.0000 </r>
       <r>   -40.6427     0.0000   108.0000 </r>
       <r>   -40.4011     0.0000   108.0000 </r>
       <r>   -40.1595    20.5000   112.9528 </r>
       <r>   -39.9179    78.8384   132.0000 </r>
       <r>   -39.6763     0.0000   132.0000 </r>
       <r>   -39.4347     0.0000   132.0000 </r>
       <r>   -39.1931     0.0000   132.0000 </r>
       <r>   -38.9515     0.0000   132.0000 </r>
       <r>   -38.7099     0.0000   132.0000 </r>
       <r>   -38.4683     0.0000   132.0000 </r>
       <r>   -38.2267     0.0000   132.0000 </r>
       <r>   -37.9851     0.0000   132.0000 </r>
       <r>   -37.7435     0.0000   132.0000 </r>
       <r>   -37.5019     0.0000   132.0000 </r>
       <r>   -37.2603     0.0000   132.0000 </r>
       <r>   -37.0187     0.0000   132.0000 </r>
       <r>   -36.7771     0.0000   132.0000 </r>
       <r>   -36.5355     0.0000   132.0000 </r>
       <r>   -36.2939     0.0000   132.0000 </r>
       <r>   -36.0523     0.0000   132.0000 </r>
       <r>   -35.8107     0.0000   132.0000 </r>
       <r>   -35.5691     0.0000   132.0000 </r>
       <r>   -35.3275     0.0000   132.0000 </r>
       <r>   -35.0859     0.0000   132.0000 </r>
       <r>   -34.8443     0.0000   132.0000 </r>
       <r>   -34.6027     0.0000   132.0000 </r>
       <r>   -34.3611     0.0000   132.0000 </r>
       <r>   -34.1195     0.0000   132.0000 </r>
       <r>   -33.8779     0.0000   132.0000 </r>
       <r>   -33.6363     0.0000   132.0000 </r>
       <r>   -33.3947     0.0000   132.0000 </r>
       <r>   -33.1531     0.0000   132.0000 </r>
       <r>   -32.9115     0.0000   132.0000 </r>
       <r>   -32.6699     0.0000   132.0000 </r>
       <r>   -32.4283     0.0000   132.0000 </r>
       <r>   -32.1867     0.0000   132.0000 </r>
       <r>   -31.9451     0.0000   132.0000 </r>
       <r>   -31.7035     0.0000   132.0000 </r>
       <r>   -31.4619     0.0000   132.0000 </r>
       <r>   -31.2203     0.0000   132.0000 </r>
       <r>   -30.9787     0.0000   132.0000 </r>
       <r>   -30.7371     0.0000   132.0000 </r>
       <r>   -30.4955     0.0000   132.0000 </r>
       <r>   -30.2539     0.0000   132.0000 </r>
       <r>   -30.0123     0.0000   132.0000 </r>
       <r>   -29.7707     0.0000   132.0000 </r>
       <r>   -29.5291     0.0000   132.0000 </r>
       <r>   -29.2875     0.0000   132.0000 </r>
       <r>   -29.0459     0.0000   132.0000 </r>
       <r>   -28.8043     0.0000   132.0000 </r>
       <r>   -28.5627     0.0000   132.0000 </r>
       <r>   -28.3211     0.0000   132.0000 </r>
       <r>   -28.0795     0.0000   132.0000 </r>
       <r>   -27.8379     0.0000   132.0000 </r>
       <r>   -27.5963     0.0000   132.0000 </r>
       <r>   -27.3548     0.0000   132.0000 </r>
       <r>   -27.1132     0.0000   132.0000 </r>
       <r>   -26.8716     0.0000   132.0000 </r>
       <r>   -26.6300     0.0000   132.0000 </r>
       <r>   -26.3884     0.0000   132.0000 </r>
       <r>   -26.1468     0.0000   132.0000 </r>
       <r>   -25.9052     0.0000   132.0000 </r>
       <r>   -25.6636     0.0000   132.0000 </r>
       <r>   -25.4220     0.0000   132.0000 </r>
       <r>   -25.1804     0.0000   132.0000 </r>
       <r>   -24.9388     0.0000   132.0000 </r>
       <r>   -24.6972     0.0000   132.0000 </r>
       <r>   -24.4556     0.0000   132.0000 </r>
       <r>   -24.2140     0.0000   132.0000 </r>
       <r>   -23.9724     0.0000   132.0000 </r>
       <r>   -23.7308     0.0000   132.0000 </r>
       <r>   -23.4892     0.0000   132.0000 </r>
       <r>   -23.2476     0.0000   132.0000 </r>
       <r>   -23.0060     0.0000   132.0000 </r>
       <r>   -22.7644     0.0000   132.0000 </r>
       <r>   -22.5228     0.0000   132.0000 </r>
       <r>   -22.2812     0.0000   132.0000 </r>
       <r>   -22.0396     0.0000   132.0000 </r>
       <r>   -21.7980     0.0000   132.0000 </r>
       <r>   -21.5564     0.0000   132.0000 </r>
       <r>   -21.3148     0.0000   132.0000 </r>
       <r>   -21.0732     0.0000   132.0000 </r>
       <r>   -20.8316     0.0000   132.0000 </r>
       <r>   -20.5900     0.0000   132.0000 </r>
       <r>   -20.3484     0.0000   132.0000 </r>
       <r>   -20.1068     0.0000   132.0000 </r>
       <r>   -19.8652     0.0000   132.0000 </r>
       <r>   -19.6236     0.0000   132.0000 </r>
       <r>   -19.3820     0.0000   132.0000 </r>
       <r>   -19.1404     0.0000   132.0000 </r>
       <r>   -18.8988     0.0000   132.0000 </r>
       <r>   -18.6572     0.0000   132.0000 </r>
       <r>   -18.4156     0.0000   132.0000 </r>
       <r>   -18.1740     0.0000   132.0000 </r>
       <r>   -17.9324     0.0000   132.0000 </r>
       <r>   -17.6908     0.0000   132.0000 </r>
       <r>   -17.4492     0.0000   132.0000 </r>
       <r>   -17.2076     0.0000   132.0000 </r>
       <r>   -16.9660     0.0000   132.0000 </r>
       <r>   -16.7244     0.0000   132.0000 </r>
       <r>   -16.4828     0.0000   132.0000 </r>
       <r>   -16.2412     0.0000   132.0000 </r>
       <r>   -15.9996     0.0000   132.0000 </r>
       <r>   -15.7580     0.0000   132.0000 </r>
       <r>   -15.5164     0.0000   132.0000 </r>
       <r>   -15.2748     0.0000   132.0000 </r>
       <r>   -15.0332     0.0000   132.0000 </r>
       <r>   -14.7916     0.0000   132.0000 </r>
       <r>   -14.5500     0.0000   132.0000 </r>
       <r>   -14.3084     0.0000   132.0000 </r>
       <r>   -14.0668     0.0000   132.0000 </r>
       <r>   -13.8252     0.0000   132.0000 </r>
       <r>   -13.5836     0.0000   132.0000 </r>
       <r>   -13.3420     0.0000   132.0000 </r>
       <r>   -13.1005    19.1578   136.6285 </r>
       <r>   -12.8589    76.2076   155.0401 </r>
       <r>   -12.6173     3.9730   156.0000 </r>
       <r>   -12.3757     0.0000   156.0000 </r>
       <r>   -12.1341     0.0000   156.0000 </r>
       <r>   -11.8925     0.0000   156.0000 </r>
       <r>   -11.6509     0.0000   156.0000 </r>
       <r>   -11.4093     0.0000   156.0000 </r>
       <r>   -11.1677     0.0000   156.0000 </r>
       <r>   -10.9261     0.0000   156.0000 </r>
       <r>   -10.6845     0.0000   156.0000 </r>
       <r>   -10.4429     0.0000   156.0000 </r>
       <r>   -10.2013     0.0000   156.0000 </r>
       <r>    -9.9597     0.0000   156.0000 </r>
       <r>    -9.7181     0.0000   156.0000 </r>
       <r>    -9.4765     0.0000   156.0000 </r>
       <r>    -9.2349     0.0000   156.0000 </r>
       <r>    -8.9933     0.0000   156.0000 </r>
       <r>    -8.7517     0.0000   156.0000 </r>
       <r>    -8.5101     0.0000   156.0000 </r>
       <r>    -8.2685     0.0000   156.0000 </r>
       <r>    -8.0269     0.0000   156.0000 </r>
       <r>    -7.7853     0.0000   156.0000 </r>
       <r>    -7.5437     0.0000   156.0000 </r>
       <r>    -7.3021     0.0688   156.0166 </r>
       <r>    -7.0605    24.5731   161.9535 </r>
       <r>    -6.8189    46.5813   173.2074 </r>
       <r>    -6.5773    26.6338   179.6421 </r>
       <r>    -6.3357     1.4813   180.0000 </r>
       <r>    -6.0941     0.0000   180.0000 </r>
       <r>    -5.8525     0.0000   180.0000 </r>
       <r>    -5.6109     0.0000   180.0000 </r>
       <r>    -5.3693     0.0000   180.0000 </r>
       <r>    -5.1277     0.0000   180.0000 </r>
       <r>    -4.8861     0.0000   180.0000 </r>
       <r>    -4.6445     0.0000   180.0000 </r>
       <r>    -4.4029     0.0000   180.0000 </r>
       <r>    -4.1613     0.0000   180.0000 </r>
       <r>    -3.9197     0.0000   180.0000 </r>
       <r>    -3.6781     0.0000   180.0000 </r>
       <r>    -3.4365     0.0000   180.0000 </r>
       <r>    -3.1949     0.0000   180.0000 </r>
       <r>    -2.9533     0.0000   180.0000 </r>
       <r>    -2.7117     0.0000   180.0000 </r>
       <r>    -2.4701     0.0000   180.0000 </r>
       <r>    -2.2285     0.0000   180.0000 </r>
       <r>    -1.9869     0.0000   180.0000 </r>
       <r>    -1.7453     0.0000   180.0000 </r>
       <r>    -1.5037     0.0000   180.0000 </r>
       <r>    -1.2621     0.0000   180.0000 </r>
       <r>    -1.0205     0.0002   180.0000 </r>
       <r>    -0.7789     1.9117   180.4619 </r>
       <r>    -0.5373    10.0185   182.8823 </r>
       <r>    -0.2957    20.4008   187.8111 </r>
       <r>    -0.0541    34.1505   196.0618 </r>
       <r>     0.1875    25.1600   202.1405 </r>
       <r>     0.4291    37.0634   211.0949 </r>
       <r>     0.6707    36.1687   219.8332 </r>
       <r>     0.9123    57.1475   233.6400 </r>
       <r>     1.1538    55.9339   247.1535 </r>
       <r>     1.3954    19.7959   251.9362 </r>
       <r>     1.6370    25.2308   258.0319 </r>
       <r>     1.8786    47.3464   269.4707 </r>
       <r>     2.1202    35.6989   278.0955 </r>
       <r>     2.3618    30.1992   285.3916 </r>
       <r>     2.6034    33.3724   293.4543 </r>
       <r>     2.8450    44.6542   304.2427 </r>
       <r>     3.0866    38.1493   313.4595 </r>
       <r>     3.3282    59.6409   327.8686 </r>
       <r>     3.5698    27.8538   334.5981 </r>
       <r>     3.8114     9.3387   336.8543 </r>
       <r>     4.0530    10.8600   339.4780 </r>
       <r>     4.2946    40.7556   349.3245 </r>
       <r>     4.5362    22.7140   354.8122 </r>
       <r>     4.7778    19.8950   359.6188 </r>
       <r>     5.0194     1.5779   360.0000 </r>
       <r>     5.2610     0.0000   360.0000 </r>
       <r>     5.5026     0.0000   360.0000 </r>
       <r>     5.7442     0.0000   360.0000 </r>
       <r>     5.9858     0.0000   360.0000 </r>
       <r>     6.2274     0.3159   360.0763 </r>
       <r>     6.4690     3.6828   360.9661 </r>
       <r>     6.7106     9.7616   363.3244 </r>
       <r>     6.9522    32.7415   371.2347 </r>
       <r>     7.1938    77.7470   390.0183 </r>
       <r>     7.4354    65.0818   405.7419 </r>
       <r>     7.6770    51.5234   418.1899 </r>
       <r>     7.9186    85.5624   438.8616 </r>
       <r>     8.1602    78.2885   457.7760 </r>
       <r>     8.4018    52.8484   470.5441 </r>
       <r>     8.6434    72.9371   488.1656 </r>
       <r>     8.8850    45.0407   499.0474 </r>
       <r>     9.1266    22.1403   504.3964 </r>
       <r>     9.3682     4.8340   505.5643 </r>
       <r>     9.6098     6.6423   507.1691 </r>
       <r>     9.8514    11.5646   509.9631 </r>
       <r>    10.0930    14.4237   513.4478 </r>
       <r>    10.3346    18.1372   517.8297 </r>
       <r>    10.5762    31.9747   525.5547 </r>
       <r>    10.8178    28.2135   532.3711 </r>
       <r>    11.0594    21.9144   537.6656 </r>
       <r>    11.3010    24.8532   543.6700 </r>
       <r>    11.5426    22.0810   549.0048 </r>
       <r>    11.7842    21.5122   554.2021 </r>
       <r>    12.0258    18.5829   558.6917 </r>
       <r>    12.2674    30.6514   566.0970 </r>
       <r>    12.5090    42.7200   576.4181 </r>
       <r>    12.7506    35.2898   584.9440 </r>
       <r>    12.9922    28.5266   591.8360 </r>
       <r>    13.2338    27.4038   598.4567 </r>
       <r>    13.4754    36.6219   607.3045 </r>
       <r>    13.7170    29.4528   614.4202 </r>
       <r>    13.9586    23.0856   619.9977 </r>
       <r>    14.2002    23.6045   625.7005 </r>
       <r>    14.4418    16.4021   629.6632 </r>
       <r>    14.6834     1.3940   630.0000 </r>
       <r>    14.9250     0.0000   630.0000 </r>
       <r>    15.1666     0.0000   630.0000 </r>
       <r>    15.4081     0.0000   630.0000 </r>
       <r>    15.6497     0.0000   630.0000 </r>
       <r>    15.8913     0.0000   630.0000 </r>
       <r>    16.1329     0.0000   630.0000 </r>
       <r>    16.3745     0.0000   630.0000 </r>
       <r>    16.6161     0.0000   630.0000 </r>
       <r>    16.8577     0.0000   630.0000 </r>
       <r>    17.0993     0.0000   630.0000 </r>
       <r>    17.3409     0.0000   630.0000 </r>
       <r>    17.5825     0.0000   630.0000 </r>
       <r>    17.8241     0.0000   630.0000 </r>
      </set>
     </set>
    </array>
   </total>
  </dos>
 </calculation>
 <structure name="finalpos" >
  <crystal>
   <varray name="basis" >
    <v>      11.51036847       0.00000000       0.00000000 </v>
    <v>       0.00000000      11.32670916       0.12548940 </v>
    <v>       0.00000000      -0.29683152      11.32351444 </v>
   </varray>
   <i name="volume">   1476.72737236 </i>
   <varray name="rec_basis" >
    <v>       0.08687819       0.00000000       0.00000000 </v>
    <v>       0.00000000       0.08826126       0.00231366 </v>
    <v>       0.00000000      -0.00097813       0.08828616 </v>
   </varray>
  </crystal>
  <varray name="positions" >
   <v>       0.10513295       0.25000000       0.00000000 </v>
   <v>       0.43846628       0.25000000       0.00000000 </v>
   <v>       0.77179961       0.25000000       0.00000000 </v>
   <v>       0.10513295       0.75000000       0.00000000 </v>
   <v>       0.43846628       0.75000000       0.00000000 </v>
   <v>       0.77179961       0.75000000       0.00000000 </v>
   <v>       0.10513295       0.25000000       0.50000000 </v>
   <v>       0.43846628       0.25000000       0.50000000 </v>
   <v>       0.77179961       0.25000000       0.50000000 </v>
   <v>       0.10513295       0.75000000       0.50000000 </v>
   <v>       0.43846628       0.75000000       0.50000000 </v>
   <v>       0.77179961       0.75000000       0.50000000 </v>
   <v>       0.10513295       0.00000000       0.25000000 </v>
   <v>       0.43846628       0.00000000       0.25000000 </v>
   <v>       0.77179961       0.00000000       0.25000000 </v>
   <v>       0.10513295       0.50000000       0.25000000 </v>
   <v>       0.43846628       0.50000000       0.25000000 </v>
   <v>       0.77179961       0.50000000       0.25000000 </v>
   <v>       0.10513295       0.00000000       0.75000000 </v>
   <v>       0.43846628       0.00000000       0.75000000 </v>
   <v>       0.77179961       0.00000000       0.75000000 </v>
   <v>       0.10513295       0.50000000       0.75000000 </v>
   <v>       0.43846628       0.50000000       0.75000000 </v>
   <v>       0.77179961       0.50000000       0.75000000 </v>
   <v>       0.10614906       0.12527662       0.37472338 </v>
   <v>       0.43948239       0.12527662       0.37472338 </v>
   <v>       0.77281572       0.12527662       0.37472338 </v>
   <v>       0.10614906       0.62527662       0.37472338 </v>
   <v>       0.43948239       0.62527662       0.37472338 </v>
   <v>       0.77281572       0.62527662       0.37472338 </v>
   <v>       0.10614906       0.12527662       0.87472338 </v>
   <v>       0.43948239       0.12527662       0.87472338 </v>
   <v>       0.77281572       0.12527662       0.87472338 </v>
   <v>       0.10614906       0.62527662       0.87472338 </v>
   <v>       0.43948239       0.62527662       0.87472338 </v>
   <v>       0.77281572       0.62527662       0.87472338 </v>
   <v>       0.10614906       0.37472338       0.12527662 </v>
   <v>       0.43948239       0.37472338       0.12527662 </v>
   <v>       0.77281572       0.37472338       0.12527662 </v>
   <v>       0.10614906       0.87472338       0.12527662 </v>
   <v>       0.43948239       0.87472338       0.12527662 </v>
   <v>       0.77281572       0.87472338       0.12527662 </v>
   <v>       0.10614906       0.37472338       0.62527662 </v>
   <v>       0.43948239       0.37472338       0.62527662 </v>
   <v>       0.77281572       0.37472338       0.62527662 </v>
   <v>       0.10614906       0.87472338       0.62527662 </v>
   <v>       0.43948239       0.87472338       0.62527662 </v>
   <v>       0.77281572       0.87472338       0.62527662 </v>
   <v>       0.27366763       0.11809471       0.11809471 </v>
   <v>       0.60613218       0.11809471       0.11809471 </v>
   <v>       0.93946551       0.11809471       0.11809471 </v>
   <v>       0.27279884       0.61809471       0.11809471 </v>
   <v>       0.60613218       0.61809471       0.11809471 </v>
   <v>       0.93946551       0.61809471       0.11809471 </v>
   <v>       0.27279884       0.11809471       0.61809471 </v>
   <v>       0.60613218       0.11809471       0.61809471 </v>
   <v>       0.93946551       0.11809471       0.61809471 </v>
   <v>       0.27279884       0.61809471       0.61809471 </v>
   <v>       0.60613218       0.61809471       0.61809471 </v>
   <v>       0.93946551       0.61809471       0.61809471 </v>
   <v>       0.27279884       0.38190529       0.38190529 </v>
   <v>       0.60613218       0.38190529       0.38190529 </v>
   <v>       0.93946551       0.38190529       0.38190529 </v>
   <v>       0.27279884       0.88190529       0.38190529 </v>
   <v>       0.60613218       0.88190529       0.38190529 </v>
   <v>       0.93946551       0.88190529       0.38190529 </v>
   <v>       0.27279884       0.38190529       0.88190529 </v>
   <v>       0.60613218       0.38190529       0.88190529 </v>
   <v>       0.93946551       0.38190529       0.88190529 </v>
   <v>       0.27279884       0.88190529       0.88190529 </v>
   <v>       0.60613218       0.88190529       0.88190529 </v>
   <v>       0.93946551       0.88190529       0.88190529 </v>
   <v>       0.27287151       0.33907427       0.16092573 </v>
   <v>       0.60620484       0.33907427       0.16092573 </v>
   <v>       0.93953818       0.33907427       0.16092573 </v>
   <v>       0.27287151       0.83907427       0.16092573 </v>
   <v>       0.60620484       0.83907427       0.16092573 </v>
   <v>       0.93953818       0.83907427       0.16092573 </v>
   <v>       0.27287151       0.33907427       0.66092573 </v>
   <v>       0.60620484       0.33907427       0.66092573 </v>
   <v>       0.93953818       0.33907427       0.66092573 </v>
   <v>       0.27287151       0.83907427       0.66092573 </v>
   <v>       0.60620484       0.83907427       0.66092573 </v>
   <v>       0.93953818       0.83907427       0.66092573 </v>
   <v>       0.27287151       0.16092573       0.33907427 </v>
   <v>       0.60620484       0.16092573       0.33907427 </v>
   <v>       0.93953818       0.16092573       0.33907427 </v>
   <v>       0.27287151       0.66092573       0.33907427 </v>
   <v>       0.60620484       0.66092573       0.33907427 </v>
   <v>       0.93953818       0.66092573       0.33907427 </v>
   <v>       0.27287151       0.16092573       0.83907427 </v>
   <v>       0.60620484       0.16092573       0.83907427 </v>
   <v>       0.93953818       0.16092573       0.83907427 </v>
   <v>       0.27287151       0.66092573       0.83907427 </v>
   <v>       0.60620484       0.66092573       0.83907427 </v>
   <v>       0.93953818       0.66092573       0.83907427 </v>
   <v>       0.10731129       0.00000000       0.00000000 </v>
   <v>       0.44064462       0.00000000       0.00000000 </v>
   <v>       0.77397796       0.00000000       0.00000000 </v>
   <v>       0.10731129       0.50000000       0.00000000 </v>
   <v>       0.44064462       0.50000000       0.00000000 </v>
   <v>       0.77397796       0.50000000       0.00000000 </v>
   <v>       0.10731129       0.00000000       0.50000000 </v>
   <v>       0.44064462       0.00000000       0.50000000 </v>
   <v>       0.77397796       0.00000000       0.50000000 </v>
   <v>       0.10731129       0.50000000       0.50000000 </v>
   <v>       0.44064462       0.50000000       0.50000000 </v>
   <v>       0.77397796       0.50000000       0.50000000 </v>
  </varray>
 </structure>
</modeling>
