 126 126   0   0
  0.1357194E+02  0.1157659E-08  0.1157660E-08  0.1387803E-08  0.5000000E-15
  1.000000000000000E-004
  CAR 
 unknown system                          
     17.61427093    -54.41538611  301      5.42925394      1.00000000
    -54.415  0.0000E+00  0.0000E+00  0.0000E+00  0.0000E+00
    -54.175  0.0000E+00  0.0000E+00  0.0000E+00  0.0000E+00
    -53.935  0.0000E+00  0.0000E+00  0.0000E+00  0.0000E+00
    -53.695  0.0000E+00  0.0000E+00  0.0000E+00  0.0000E+00
    -53.455  0.0000E+00  0.0000E+00  0.0000E+00  0.0000E+00
    -53.215  0.0000E+00  0.0000E+00  0.0000E+00  0.0000E+00
    -52.975  0.0000E+00  0.0000E+00  0.0000E+00  0.0000E+00
    -52.735  0.0000E+00  0.0000E+00  0.0000E+00  0.0000E+00
    -52.495  0.0000E+00  0.0000E+00  0.0000E+00  0.0000E+00
    -52.254  0.0000E+00  0.0000E+00  0.0000E+00  0.0000E+00
    -52.014  0.0000E+00  0.0000E+00  0.0000E+00  0.0000E+00
    -51.774  0.0000E+00  0.0000E+00  0.0000E+00  0.0000E+00
    -51.534  0.0000E+00  0.0000E+00  0.0000E+00  0.0000E+00
    -51.294  0.9251E-03  0.0000E+00  0.2221E-03  0.0000E+00
    -51.054  0.1488E+03  0.0000E+00  0.3572E+02  0.0000E+00
    -50.814  0.1172E+01  0.0000E+00  0.3600E+02  0.0000E+00
    -50.574  0.0000E+00  0.0000E+00  0.3600E+02  0.0000E+00
    -50.334  0.0000E+00  0.0000E+00  0.3600E+02  0.0000E+00
    -50.094  0.0000E+00  0.0000E+00  0.3600E+02  0.0000E+00
    -49.854  0.2280E-05  0.0000E+00  0.3600E+02  0.0000E+00
    -49.613  0.2610E+03  0.0000E+00  0.9865E+02  0.0000E+00
    -49.373  0.3893E+02  0.0000E+00  0.1080E+03  0.0000E+00
    -49.133  0.0000E+00  0.0000E+00  0.1080E+03  0.0000E+00
    -48.893  0.0000E+00  0.0000E+00  0.1080E+03  0.0000E+00
    -48.653  0.0000E+00  0.0000E+00  0.1080E+03  0.0000E+00
    -48.413  0.0000E+00  0.0000E+00  0.1080E+03  0.0000E+00
    -48.173  0.0000E+00  0.0000E+00  0.1080E+03  0.0000E+00
    -47.933  0.0000E+00  0.0000E+00  0.1080E+03  0.0000E+00
    -47.693  0.0000E+00  0.0000E+00  0.1080E+03  0.0000E+00
    -47.453  0.0000E+00  0.0000E+00  0.1080E+03  0.0000E+00
    -47.212  0.0000E+00  0.0000E+00  0.1080E+03  0.0000E+00
    -46.972  0.0000E+00  0.0000E+00  0.1080E+03  0.0000E+00
    -46.732  0.0000E+00  0.0000E+00  0.1080E+03  0.0000E+00
    -46.492  0.0000E+00  0.3721E+00  0.1080E+03  0.8934E-01
    -46.252  0.0000E+00  0.1496E+03  0.1080E+03  0.3600E+02
    -46.012  0.0000E+00  0.4949E+01  0.1080E+03  0.3719E+02
    -45.772  0.0000E+00  0.2949E+03  0.1080E+03  0.1080E+03
    -45.532  0.0000E+00  0.0000E+00  0.1080E+03  0.1080E+03
    -45.292  0.0000E+00  0.0000E+00  0.1080E+03  0.1080E+03
    -45.052  0.0000E+00  0.0000E+00  0.1080E+03  0.1080E+03
    -44.811  0.0000E+00  0.0000E+00  0.1080E+03  0.1080E+03
    -44.571  0.0000E+00  0.0000E+00  0.1080E+03  0.1080E+03
    -44.331  0.0000E+00  0.0000E+00  0.1080E+03  0.1080E+03
    -44.091  0.0000E+00  0.0000E+00  0.1080E+03  0.1080E+03
    -43.851  0.0000E+00  0.0000E+00  0.1080E+03  0.1080E+03
    -43.611  0.0000E+00  0.0000E+00  0.1080E+03  0.1080E+03
    -43.371  0.0000E+00  0.0000E+00  0.1080E+03  0.1080E+03
    -43.131  0.0000E+00  0.0000E+00  0.1080E+03  0.1080E+03
    -42.891  0.0000E+00  0.0000E+00  0.1080E+03  0.1080E+03
    -42.651  0.0000E+00  0.0000E+00  0.1080E+03  0.1080E+03
    -42.410  0.0000E+00  0.0000E+00  0.1080E+03  0.1080E+03
    -42.170  0.0000E+00  0.0000E+00  0.1080E+03  0.1080E+03
    -41.930  0.0000E+00  0.0000E+00  0.1080E+03  0.1080E+03
    -41.690  0.0000E+00  0.0000E+00  0.1080E+03  0.1080E+03
    -41.450  0.0000E+00  0.0000E+00  0.1080E+03  0.1080E+03
    -41.210  0.0000E+00  0.0000E+00  0.1080E+03  0.1080E+03
    -40.970  0.0000E+00  0.0000E+00  0.1080E+03  0.1080E+03
    -40.730  0.0000E+00  0.0000E+00  0.1080E+03  0.1080E+03
    -40.490  0.0000E+00  0.0000E+00  0.1080E+03  0.1080E+03
    -40.250  0.0000E+00  0.0000E+00  0.1080E+03  0.1080E+03
    -40.009  0.0000E+00  0.0000E+00  0.1080E+03  0.1080E+03
    -39.769  0.2090E-02  0.1935E-02  0.1080E+03  0.1080E+03
    -39.529  0.1477E+03  0.1476E+03  0.1435E+03  0.1434E+03
    -39.289  0.2270E+01  0.2352E+01  0.1440E+03  0.1440E+03
    -39.049  0.0000E+00  0.0000E+00  0.1440E+03  0.1440E+03
    -38.809  0.0000E+00  0.0000E+00  0.1440E+03  0.1440E+03
    -38.569  0.0000E+00  0.0000E+00  0.1440E+03  0.1440E+03
    -38.329  0.0000E+00  0.0000E+00  0.1440E+03  0.1440E+03
    -38.089  0.0000E+00  0.0000E+00  0.1440E+03  0.1440E+03
    -37.849  0.0000E+00  0.0000E+00  0.1440E+03  0.1440E+03
    -37.608  0.0000E+00  0.0000E+00  0.1440E+03  0.1440E+03
    -37.368  0.0000E+00  0.0000E+00  0.1440E+03  0.1440E+03
    -37.128  0.0000E+00  0.0000E+00  0.1440E+03  0.1440E+03
    -36.888  0.0000E+00  0.0000E+00  0.1440E+03  0.1440E+03
    -36.648  0.0000E+00  0.0000E+00  0.1440E+03  0.1440E+03
    -36.408  0.0000E+00  0.0000E+00  0.1440E+03  0.1440E+03
    -36.168  0.0000E+00  0.0000E+00  0.1440E+03  0.1440E+03
    -35.928  0.0000E+00  0.0000E+00  0.1440E+03  0.1440E+03
    -35.688  0.0000E+00  0.0000E+00  0.1440E+03  0.1440E+03
    -35.448  0.0000E+00  0.0000E+00  0.1440E+03  0.1440E+03
    -35.207  0.0000E+00  0.0000E+00  0.1440E+03  0.1440E+03
    -34.967  0.0000E+00  0.0000E+00  0.1440E+03  0.1440E+03
    -34.727  0.0000E+00  0.0000E+00  0.1440E+03  0.1440E+03
    -34.487  0.0000E+00  0.0000E+00  0.1440E+03  0.1440E+03
    -34.247  0.0000E+00  0.0000E+00  0.1440E+03  0.1440E+03
    -34.007  0.0000E+00  0.0000E+00  0.1440E+03  0.1440E+03
    -33.767  0.0000E+00  0.0000E+00  0.1440E+03  0.1440E+03
    -33.527  0.0000E+00  0.0000E+00  0.1440E+03  0.1440E+03
    -33.287  0.0000E+00  0.0000E+00  0.1440E+03  0.1440E+03
    -33.047  0.0000E+00  0.0000E+00  0.1440E+03  0.1440E+03
    -32.806  0.0000E+00  0.0000E+00  0.1440E+03  0.1440E+03
    -32.566  0.0000E+00  0.0000E+00  0.1440E+03  0.1440E+03
    -32.326  0.0000E+00  0.0000E+00  0.1440E+03  0.1440E+03
    -32.086  0.0000E+00  0.0000E+00  0.1440E+03  0.1440E+03
    -31.846  0.0000E+00  0.0000E+00  0.1440E+03  0.1440E+03
    -31.606  0.0000E+00  0.0000E+00  0.1440E+03  0.1440E+03
    -31.366  0.0000E+00  0.0000E+00  0.1440E+03  0.1440E+03
    -31.126  0.0000E+00  0.0000E+00  0.1440E+03  0.1440E+03
    -30.886  0.0000E+00  0.0000E+00  0.1440E+03  0.1440E+03
    -30.646  0.0000E+00  0.0000E+00  0.1440E+03  0.1440E+03
    -30.406  0.0000E+00  0.0000E+00  0.1440E+03  0.1440E+03
    -30.165  0.0000E+00  0.0000E+00  0.1440E+03  0.1440E+03
    -29.925  0.0000E+00  0.0000E+00  0.1440E+03  0.1440E+03
    -29.685  0.0000E+00  0.0000E+00  0.1440E+03  0.1440E+03
    -29.445  0.0000E+00  0.0000E+00  0.1440E+03  0.1440E+03
    -29.205  0.0000E+00  0.0000E+00  0.1440E+03  0.1440E+03
    -28.965  0.0000E+00  0.0000E+00  0.1440E+03  0.1440E+03
    -28.725  0.0000E+00  0.0000E+00  0.1440E+03  0.1440E+03
    -28.485  0.0000E+00  0.0000E+00  0.1440E+03  0.1440E+03
    -28.245  0.0000E+00  0.0000E+00  0.1440E+03  0.1440E+03
    -28.005  0.0000E+00  0.0000E+00  0.1440E+03  0.1440E+03
    -27.764  0.0000E+00  0.0000E+00  0.1440E+03  0.1440E+03
    -27.524  0.0000E+00  0.0000E+00  0.1440E+03  0.1440E+03
    -27.284  0.0000E+00  0.0000E+00  0.1440E+03  0.1440E+03
    -27.044  0.0000E+00  0.0000E+00  0.1440E+03  0.1440E+03
    -26.804  0.0000E+00  0.0000E+00  0.1440E+03  0.1440E+03
    -26.564  0.0000E+00  0.0000E+00  0.1440E+03  0.1440E+03
    -26.324  0.0000E+00  0.0000E+00  0.1440E+03  0.1440E+03
    -26.084  0.0000E+00  0.0000E+00  0.1440E+03  0.1440E+03
    -25.844  0.0000E+00  0.0000E+00  0.1440E+03  0.1440E+03
    -25.604  0.0000E+00  0.0000E+00  0.1440E+03  0.1440E+03
    -25.363  0.0000E+00  0.0000E+00  0.1440E+03  0.1440E+03
    -25.123  0.0000E+00  0.0000E+00  0.1440E+03  0.1440E+03
    -24.883  0.0000E+00  0.0000E+00  0.1440E+03  0.1440E+03
    -24.643  0.0000E+00  0.0000E+00  0.1440E+03  0.1440E+03
    -24.403  0.0000E+00  0.0000E+00  0.1440E+03  0.1440E+03
    -24.163  0.0000E+00  0.0000E+00  0.1440E+03  0.1440E+03
    -23.923  0.0000E+00  0.0000E+00  0.1440E+03  0.1440E+03
    -23.683  0.0000E+00  0.0000E+00  0.1440E+03  0.1440E+03
    -23.443  0.0000E+00  0.0000E+00  0.1440E+03  0.1440E+03
    -23.203  0.0000E+00  0.0000E+00  0.1440E+03  0.1440E+03
    -22.962  0.0000E+00  0.0000E+00  0.1440E+03  0.1440E+03
    -22.722  0.0000E+00  0.0000E+00  0.1440E+03  0.1440E+03
    -22.482  0.0000E+00  0.0000E+00  0.1440E+03  0.1440E+03
    -22.242  0.0000E+00  0.0000E+00  0.1440E+03  0.1440E+03
    -22.002  0.0000E+00  0.0000E+00  0.1440E+03  0.1440E+03
    -21.762  0.0000E+00  0.0000E+00  0.1440E+03  0.1440E+03
    -21.522  0.0000E+00  0.0000E+00  0.1440E+03  0.1440E+03
    -21.282  0.0000E+00  0.0000E+00  0.1440E+03  0.1440E+03
    -21.042  0.0000E+00  0.0000E+00  0.1440E+03  0.1440E+03
    -20.802  0.0000E+00  0.0000E+00  0.1440E+03  0.1440E+03
    -20.561  0.0000E+00  0.0000E+00  0.1440E+03  0.1440E+03
    -20.321  0.0000E+00  0.0000E+00  0.1440E+03  0.1440E+03
    -20.081  0.0000E+00  0.0000E+00  0.1440E+03  0.1440E+03
    -19.841  0.0000E+00  0.0000E+00  0.1440E+03  0.1440E+03
    -19.601  0.0000E+00  0.0000E+00  0.1440E+03  0.1440E+03
    -19.361  0.0000E+00  0.0000E+00  0.1440E+03  0.1440E+03
    -19.121  0.0000E+00  0.0000E+00  0.1440E+03  0.1440E+03
    -18.881  0.0000E+00  0.0000E+00  0.1440E+03  0.1440E+03
    -18.641  0.0000E+00  0.0000E+00  0.1440E+03  0.1440E+03
    -18.401  0.0000E+00  0.0000E+00  0.1440E+03  0.1440E+03
    -18.160  0.0000E+00  0.0000E+00  0.1440E+03  0.1440E+03
    -17.920  0.0000E+00  0.0000E+00  0.1440E+03  0.1440E+03
    -17.680  0.0000E+00  0.0000E+00  0.1440E+03  0.1440E+03
    -17.440  0.0000E+00  0.0000E+00  0.1440E+03  0.1440E+03
    -17.200  0.0000E+00  0.0000E+00  0.1440E+03  0.1440E+03
    -16.960  0.0000E+00  0.0000E+00  0.1440E+03  0.1440E+03
    -16.720  0.0000E+00  0.0000E+00  0.1440E+03  0.1440E+03
    -16.480  0.0000E+00  0.0000E+00  0.1440E+03  0.1440E+03
    -16.240  0.0000E+00  0.0000E+00  0.1440E+03  0.1440E+03
    -16.000  0.0000E+00  0.0000E+00  0.1440E+03  0.1440E+03
    -15.759  0.0000E+00  0.0000E+00  0.1440E+03  0.1440E+03
    -15.519  0.0000E+00  0.0000E+00  0.1440E+03  0.1440E+03
    -15.279  0.0000E+00  0.0000E+00  0.1440E+03  0.1440E+03
    -15.039  0.0000E+00  0.0000E+00  0.1440E+03  0.1440E+03
    -14.799  0.0000E+00  0.0000E+00  0.1440E+03  0.1440E+03
    -14.559  0.0000E+00  0.0000E+00  0.1440E+03  0.1440E+03
    -14.319  0.0000E+00  0.0000E+00  0.1440E+03  0.1440E+03
    -14.079  0.0000E+00  0.0000E+00  0.1440E+03  0.1440E+03
    -13.839  0.0000E+00  0.0000E+00  0.1440E+03  0.1440E+03
    -13.599  0.0000E+00  0.0000E+00  0.1440E+03  0.1440E+03
    -13.358  0.0000E+00  0.0000E+00  0.1440E+03  0.1440E+03
    -13.118  0.0000E+00  0.0000E+00  0.1440E+03  0.1440E+03
    -12.878  0.2000E-01  0.0000E+00  0.1440E+03  0.1440E+03
    -12.638  0.7266E+02  0.3327E-03  0.1614E+03  0.1440E+03
    -12.398  0.2291E+01  0.6266E+02  0.1620E+03  0.1590E+03
    -12.158  0.0000E+00  0.1230E+02  0.1620E+03  0.1620E+03
    -11.918  0.0000E+00  0.0000E+00  0.1620E+03  0.1620E+03
    -11.678  0.0000E+00  0.0000E+00  0.1620E+03  0.1620E+03
    -11.438  0.0000E+00  0.0000E+00  0.1620E+03  0.1620E+03
    -11.198  0.0000E+00  0.0000E+00  0.1620E+03  0.1620E+03
    -10.957  0.0000E+00  0.0000E+00  0.1620E+03  0.1620E+03
    -10.717  0.0000E+00  0.0000E+00  0.1620E+03  0.1620E+03
    -10.477  0.0000E+00  0.0000E+00  0.1620E+03  0.1620E+03
    -10.237  0.0000E+00  0.0000E+00  0.1620E+03  0.1620E+03
     -9.997  0.0000E+00  0.0000E+00  0.1620E+03  0.1620E+03
     -9.757  0.0000E+00  0.0000E+00  0.1620E+03  0.1620E+03
     -9.517  0.0000E+00  0.0000E+00  0.1620E+03  0.1620E+03
     -9.277  0.0000E+00  0.0000E+00  0.1620E+03  0.1620E+03
     -9.037  0.0000E+00  0.0000E+00  0.1620E+03  0.1620E+03
     -8.797  0.0000E+00  0.0000E+00  0.1620E+03  0.1620E+03
     -8.557  0.0000E+00  0.0000E+00  0.1620E+03  0.1620E+03
     -8.316  0.0000E+00  0.0000E+00  0.1620E+03  0.1620E+03
     -8.076  0.0000E+00  0.0000E+00  0.1620E+03  0.1620E+03
     -7.836  0.5303E-02  0.4496E-15  0.1620E+03  0.1620E+03
     -7.596  0.7728E+01  0.6630E-01  0.1639E+03  0.1620E+03
     -7.356  0.1420E+02  0.9453E+01  0.1673E+03  0.1643E+03
     -7.116  0.2420E+02  0.1692E+02  0.1731E+03  0.1683E+03
     -6.876  0.7299E+02  0.2402E+02  0.1906E+03  0.1741E+03
     -6.636  0.3082E+02  0.6908E+02  0.1980E+03  0.1907E+03
     -6.396  0.2704E-03  0.3037E+02  0.1980E+03  0.1980E+03
     -6.156  0.0000E+00  0.1813E-01  0.1980E+03  0.1980E+03
     -5.915  0.0000E+00  0.0000E+00  0.1980E+03  0.1980E+03
     -5.675  0.0000E+00  0.0000E+00  0.1980E+03  0.1980E+03
     -5.435  0.0000E+00  0.0000E+00  0.1980E+03  0.1980E+03
     -5.195  0.0000E+00  0.0000E+00  0.1980E+03  0.1980E+03
     -4.955  0.0000E+00  0.0000E+00  0.1980E+03  0.1980E+03
     -4.715  0.0000E+00  0.0000E+00  0.1980E+03  0.1980E+03
     -4.475  0.0000E+00  0.0000E+00  0.1980E+03  0.1980E+03
     -4.235  0.0000E+00  0.0000E+00  0.1980E+03  0.1980E+03
     -3.995  0.0000E+00  0.0000E+00  0.1980E+03  0.1980E+03
     -3.755  0.0000E+00  0.0000E+00  0.1980E+03  0.1980E+03
     -3.514  0.0000E+00  0.0000E+00  0.1980E+03  0.1980E+03
     -3.274  0.0000E+00  0.0000E+00  0.1980E+03  0.1980E+03
     -3.034  0.0000E+00  0.0000E+00  0.1980E+03  0.1980E+03
     -2.794  0.0000E+00  0.0000E+00  0.1980E+03  0.1980E+03
     -2.554  0.0000E+00  0.0000E+00  0.1980E+03  0.1980E+03
     -2.314  0.0000E+00  0.0000E+00  0.1980E+03  0.1980E+03
     -2.074  0.0000E+00  0.0000E+00  0.1980E+03  0.1980E+03
     -1.834  0.8991E-16  0.0000E+00  0.1980E+03  0.1980E+03
     -1.594  0.9914E-01  0.0000E+00  0.1980E+03  0.1980E+03
     -1.354  0.4459E+02  0.0000E+00  0.2087E+03  0.1980E+03
     -1.113  0.3028E+02  0.0000E+00  0.2160E+03  0.1980E+03
     -0.873  0.2755E+01  0.0000E+00  0.2167E+03  0.1980E+03
     -0.633  0.3881E+02  0.1662E-10  0.2260E+03  0.1980E+03
     -0.393  0.1056E+03  0.1110E+01  0.2513E+03  0.1983E+03
     -0.153  0.1186E+03  0.1244E+02  0.2798E+03  0.2013E+03
      0.087  0.1060E+03  0.1972E+02  0.3053E+03  0.2060E+03
      0.327  0.8740E+02  0.2728E+02  0.3263E+03  0.2125E+03
      0.567  0.7773E+02  0.3029E+02  0.3449E+03  0.2198E+03
      0.807  0.3536E+02  0.3839E+02  0.3534E+03  0.2290E+03
      1.047  0.2990E+02  0.3517E+02  0.3606E+03  0.2375E+03
      1.288  0.5008E+02  0.4710E+02  0.3726E+03  0.2488E+03
      1.528  0.3169E+02  0.3080E+02  0.3802E+03  0.2562E+03
      1.768  0.5582E+02  0.6075E+02  0.3936E+03  0.2708E+03
      2.008  0.1230E+03  0.4827E+02  0.4232E+03  0.2824E+03
      2.248  0.8002E+02  0.1864E+02  0.4424E+03  0.2868E+03
      2.488  0.5360E+02  0.2968E+02  0.4552E+03  0.2940E+03
      2.728  0.3974E+02  0.5972E+02  0.4648E+03  0.3083E+03
      2.968  0.2583E+02  0.5046E+02  0.4710E+03  0.3204E+03
      3.208  0.1581E+02  0.5532E+02  0.4748E+03  0.3337E+03
      3.448  0.2699E+02  0.7527E+02  0.4813E+03  0.3518E+03
      3.689  0.4066E+02  0.2800E+02  0.4910E+03  0.3585E+03
      3.929  0.4225E+02  0.1899E+02  0.5012E+03  0.3630E+03
      4.169  0.4497E+02  0.9124E+02  0.5120E+03  0.3850E+03
      4.409  0.4559E+02  0.4406E+02  0.5229E+03  0.3955E+03
      4.649  0.2508E+02  0.1958E+01  0.5289E+03  0.3960E+03
      4.889  0.2756E+02  0.5807E-05  0.5355E+03  0.3960E+03
      5.129  0.1850E+02  0.0000E+00  0.5400E+03  0.3960E+03
      5.369  0.5776E-01  0.0000E+00  0.5400E+03  0.3960E+03
      5.609  0.0000E+00  0.0000E+00  0.5400E+03  0.3960E+03
      5.849  0.0000E+00  0.0000E+00  0.5400E+03  0.3960E+03
      6.090  0.0000E+00  0.7142E-14  0.5400E+03  0.3960E+03
      6.330  0.0000E+00  0.1280E+00  0.5400E+03  0.3960E+03
      6.570  0.0000E+00  0.4249E+01  0.5400E+03  0.3971E+03
      6.810  0.0000E+00  0.1337E+02  0.5400E+03  0.4003E+03
      7.050  0.0000E+00  0.2935E+02  0.5400E+03  0.4073E+03
      7.290  0.2551E-05  0.5548E+02  0.5400E+03  0.4206E+03
      7.530  0.4719E+00  0.7962E+02  0.5401E+03  0.4397E+03
      7.770  0.2291E+01  0.6842E+02  0.5407E+03  0.4562E+03
      8.010  0.1538E+01  0.8134E+02  0.5410E+03  0.4757E+03
      8.250  0.7075E+01  0.1001E+03  0.5427E+03  0.4997E+03
      8.491  0.7759E+01  0.4019E+02  0.5446E+03  0.5094E+03
      8.731  0.4743E+01  0.4365E+02  0.5457E+03  0.5199E+03
      8.971  0.1095E+02  0.4098E+02  0.5484E+03  0.5297E+03
      9.211  0.2022E+02  0.3974E+02  0.5532E+03  0.5392E+03
      9.451  0.2043E+02  0.1514E+02  0.5581E+03  0.5429E+03
      9.691  0.3051E+02  0.1615E+02  0.5654E+03  0.5468E+03
      9.931  0.2791E+02  0.1306E+02  0.5721E+03  0.5499E+03
     10.171  0.1764E+02  0.2449E+02  0.5764E+03  0.5558E+03
     10.411  0.1458E+02  0.2318E+02  0.5799E+03  0.5613E+03
     10.651  0.1866E+02  0.2696E+02  0.5844E+03  0.5678E+03
     10.892  0.2353E+02  0.2525E+02  0.5900E+03  0.5739E+03
     11.132  0.2830E+02  0.2533E+02  0.5968E+03  0.5800E+03
     11.372  0.2961E+02  0.1981E+02  0.6039E+03  0.5847E+03
     11.612  0.3025E+02  0.2458E+02  0.6112E+03  0.5906E+03
     11.852  0.2968E+02  0.2648E+02  0.6183E+03  0.5970E+03
     12.092  0.4133E+02  0.2684E+02  0.6282E+03  0.6034E+03
     12.332  0.5053E+02  0.3634E+02  0.6404E+03  0.6121E+03
     12.572  0.2617E+02  0.3755E+02  0.6467E+03  0.6212E+03
     12.812  0.2711E+02  0.4685E+02  0.6532E+03  0.6324E+03
     13.052  0.3294E+02  0.3589E+02  0.6611E+03  0.6410E+03
     13.292  0.3710E+02  0.2935E+02  0.6700E+03  0.6481E+03
     13.533  0.2499E+02  0.4880E+02  0.6760E+03  0.6598E+03
     13.773  0.1267E+02  0.3917E+02  0.6790E+03  0.6692E+03
     14.013  0.4081E+01  0.2112E+02  0.6800E+03  0.6743E+03
     14.253  0.2984E-02  0.1815E+02  0.6800E+03  0.6786E+03
     14.493  0.0000E+00  0.5765E+01  0.6800E+03  0.6800E+03
     14.733  0.0000E+00  0.3585E-05  0.6800E+03  0.6800E+03
     14.973  0.0000E+00  0.0000E+00  0.6800E+03  0.6800E+03
     15.213  0.0000E+00  0.0000E+00  0.6800E+03  0.6800E+03
     15.453  0.0000E+00  0.0000E+00  0.6800E+03  0.6800E+03
     15.693  0.0000E+00  0.0000E+00  0.6800E+03  0.6800E+03
     15.934  0.0000E+00  0.0000E+00  0.6800E+03  0.6800E+03
     16.174  0.0000E+00  0.0000E+00  0.6800E+03  0.6800E+03
     16.414  0.0000E+00  0.0000E+00  0.6800E+03  0.6800E+03
     16.654  0.0000E+00  0.0000E+00  0.6800E+03  0.6800E+03
     16.894  0.0000E+00  0.0000E+00  0.6800E+03  0.6800E+03
     17.134  0.0000E+00  0.0000E+00  0.6800E+03  0.6800E+03
     17.374  0.0000E+00  0.0000E+00  0.6800E+03  0.6800E+03
     17.614  0.0000E+00  0.0000E+00  0.6800E+03  0.6800E+03
