 126 126   0   0
  0.1357194E+02  0.1157659E-08  0.1157660E-08  0.1387803E-08  0.5000000E-15
  1.000000000000000E-004
  CAR 
 unknown system                          
     17.62164792    -54.41640152  301      5.40519537      1.00000000
    -54.416  0.0000E+00  0.0000E+00  0.0000E+00  0.0000E+00
    -54.176  0.0000E+00  0.0000E+00  0.0000E+00  0.0000E+00
    -53.936  0.0000E+00  0.0000E+00  0.0000E+00  0.0000E+00
    -53.696  0.0000E+00  0.0000E+00  0.0000E+00  0.0000E+00
    -53.456  0.0000E+00  0.0000E+00  0.0000E+00  0.0000E+00
    -53.216  0.0000E+00  0.0000E+00  0.0000E+00  0.0000E+00
    -52.976  0.0000E+00  0.0000E+00  0.0000E+00  0.0000E+00
    -52.736  0.0000E+00  0.0000E+00  0.0000E+00  0.0000E+00
    -52.495  0.0000E+00  0.0000E+00  0.0000E+00  0.0000E+00
    -52.255  0.0000E+00  0.0000E+00  0.0000E+00  0.0000E+00
    -52.015  0.0000E+00  0.0000E+00  0.0000E+00  0.0000E+00
    -51.775  0.0000E+00  0.0000E+00  0.0000E+00  0.0000E+00
    -51.535  0.0000E+00  0.0000E+00  0.0000E+00  0.0000E+00
    -51.295  0.8429E-03  0.0000E+00  0.2024E-03  0.0000E+00
    -51.055  0.1487E+03  0.0000E+00  0.3570E+02  0.0000E+00
    -50.814  0.1238E+01  0.0000E+00  0.3600E+02  0.0000E+00
    -50.574  0.0000E+00  0.0000E+00  0.3600E+02  0.0000E+00
    -50.334  0.0000E+00  0.0000E+00  0.3600E+02  0.0000E+00
    -50.094  0.0000E+00  0.0000E+00  0.3600E+02  0.0000E+00
    -49.854  0.2089E-05  0.0000E+00  0.3600E+02  0.0000E+00
    -49.614  0.2599E+03  0.0000E+00  0.9842E+02  0.0000E+00
    -49.374  0.3990E+02  0.0000E+00  0.1080E+03  0.0000E+00
    -49.134  0.0000E+00  0.0000E+00  0.1080E+03  0.0000E+00
    -48.893  0.0000E+00  0.0000E+00  0.1080E+03  0.0000E+00
    -48.653  0.0000E+00  0.0000E+00  0.1080E+03  0.0000E+00
    -48.413  0.0000E+00  0.0000E+00  0.1080E+03  0.0000E+00
    -48.173  0.0000E+00  0.0000E+00  0.1080E+03  0.0000E+00
    -47.933  0.0000E+00  0.0000E+00  0.1080E+03  0.0000E+00
    -47.693  0.0000E+00  0.0000E+00  0.1080E+03  0.0000E+00
    -47.453  0.0000E+00  0.0000E+00  0.1080E+03  0.0000E+00
    -47.213  0.0000E+00  0.0000E+00  0.1080E+03  0.0000E+00
    -46.972  0.0000E+00  0.0000E+00  0.1080E+03  0.0000E+00
    -46.732  0.0000E+00  0.0000E+00  0.1080E+03  0.0000E+00
    -46.492  0.0000E+00  0.3669E+00  0.1080E+03  0.8810E-01
    -46.252  0.0000E+00  0.1495E+03  0.1080E+03  0.3600E+02
    -46.012  0.0000E+00  0.4912E+01  0.1080E+03  0.3718E+02
    -45.772  0.0000E+00  0.2949E+03  0.1080E+03  0.1080E+03
    -45.532  0.0000E+00  0.0000E+00  0.1080E+03  0.1080E+03
    -45.292  0.0000E+00  0.0000E+00  0.1080E+03  0.1080E+03
    -45.051  0.0000E+00  0.0000E+00  0.1080E+03  0.1080E+03
    -44.811  0.0000E+00  0.0000E+00  0.1080E+03  0.1080E+03
    -44.571  0.0000E+00  0.0000E+00  0.1080E+03  0.1080E+03
    -44.331  0.0000E+00  0.0000E+00  0.1080E+03  0.1080E+03
    -44.091  0.0000E+00  0.0000E+00  0.1080E+03  0.1080E+03
    -43.851  0.0000E+00  0.0000E+00  0.1080E+03  0.1080E+03
    -43.611  0.0000E+00  0.0000E+00  0.1080E+03  0.1080E+03
    -43.371  0.0000E+00  0.0000E+00  0.1080E+03  0.1080E+03
    -43.130  0.0000E+00  0.0000E+00  0.1080E+03  0.1080E+03
    -42.890  0.0000E+00  0.0000E+00  0.1080E+03  0.1080E+03
    -42.650  0.0000E+00  0.0000E+00  0.1080E+03  0.1080E+03
    -42.410  0.0000E+00  0.0000E+00  0.1080E+03  0.1080E+03
    -42.170  0.0000E+00  0.0000E+00  0.1080E+03  0.1080E+03
    -41.930  0.0000E+00  0.0000E+00  0.1080E+03  0.1080E+03
    -41.690  0.0000E+00  0.0000E+00  0.1080E+03  0.1080E+03
    -41.450  0.0000E+00  0.0000E+00  0.1080E+03  0.1080E+03
    -41.209  0.0000E+00  0.0000E+00  0.1080E+03  0.1080E+03
    -40.969  0.0000E+00  0.0000E+00  0.1080E+03  0.1080E+03
    -40.729  0.0000E+00  0.0000E+00  0.1080E+03  0.1080E+03
    -40.489  0.0000E+00  0.0000E+00  0.1080E+03  0.1080E+03
    -40.249  0.0000E+00  0.0000E+00  0.1080E+03  0.1080E+03
    -40.009  0.0000E+00  0.0000E+00  0.1080E+03  0.1080E+03
    -39.769  0.2005E-02  0.1853E-02  0.1080E+03  0.1080E+03
    -39.529  0.1478E+03  0.1478E+03  0.1435E+03  0.1435E+03
    -39.288  0.2082E+01  0.2158E+01  0.1440E+03  0.1440E+03
    -39.048  0.0000E+00  0.0000E+00  0.1440E+03  0.1440E+03
    -38.808  0.0000E+00  0.0000E+00  0.1440E+03  0.1440E+03
    -38.568  0.0000E+00  0.0000E+00  0.1440E+03  0.1440E+03
    -38.328  0.0000E+00  0.0000E+00  0.1440E+03  0.1440E+03
    -38.088  0.0000E+00  0.0000E+00  0.1440E+03  0.1440E+03
    -37.848  0.0000E+00  0.0000E+00  0.1440E+03  0.1440E+03
    -37.608  0.0000E+00  0.0000E+00  0.1440E+03  0.1440E+03
    -37.367  0.0000E+00  0.0000E+00  0.1440E+03  0.1440E+03
    -37.127  0.0000E+00  0.0000E+00  0.1440E+03  0.1440E+03
    -36.887  0.0000E+00  0.0000E+00  0.1440E+03  0.1440E+03
    -36.647  0.0000E+00  0.0000E+00  0.1440E+03  0.1440E+03
    -36.407  0.0000E+00  0.0000E+00  0.1440E+03  0.1440E+03
    -36.167  0.0000E+00  0.0000E+00  0.1440E+03  0.1440E+03
    -35.927  0.0000E+00  0.0000E+00  0.1440E+03  0.1440E+03
    -35.687  0.0000E+00  0.0000E+00  0.1440E+03  0.1440E+03
    -35.446  0.0000E+00  0.0000E+00  0.1440E+03  0.1440E+03
    -35.206  0.0000E+00  0.0000E+00  0.1440E+03  0.1440E+03
    -34.966  0.0000E+00  0.0000E+00  0.1440E+03  0.1440E+03
    -34.726  0.0000E+00  0.0000E+00  0.1440E+03  0.1440E+03
    -34.486  0.0000E+00  0.0000E+00  0.1440E+03  0.1440E+03
    -34.246  0.0000E+00  0.0000E+00  0.1440E+03  0.1440E+03
    -34.006  0.0000E+00  0.0000E+00  0.1440E+03  0.1440E+03
    -33.765  0.0000E+00  0.0000E+00  0.1440E+03  0.1440E+03
    -33.525  0.0000E+00  0.0000E+00  0.1440E+03  0.1440E+03
    -33.285  0.0000E+00  0.0000E+00  0.1440E+03  0.1440E+03
    -33.045  0.0000E+00  0.0000E+00  0.1440E+03  0.1440E+03
    -32.805  0.0000E+00  0.0000E+00  0.1440E+03  0.1440E+03
    -32.565  0.0000E+00  0.0000E+00  0.1440E+03  0.1440E+03
    -32.325  0.0000E+00  0.0000E+00  0.1440E+03  0.1440E+03
    -32.085  0.0000E+00  0.0000E+00  0.1440E+03  0.1440E+03
    -31.844  0.0000E+00  0.0000E+00  0.1440E+03  0.1440E+03
    -31.604  0.0000E+00  0.0000E+00  0.1440E+03  0.1440E+03
    -31.364  0.0000E+00  0.0000E+00  0.1440E+03  0.1440E+03
    -31.124  0.0000E+00  0.0000E+00  0.1440E+03  0.1440E+03
    -30.884  0.0000E+00  0.0000E+00  0.1440E+03  0.1440E+03
    -30.644  0.0000E+00  0.0000E+00  0.1440E+03  0.1440E+03
    -30.404  0.0000E+00  0.0000E+00  0.1440E+03  0.1440E+03
    -30.164  0.0000E+00  0.0000E+00  0.1440E+03  0.1440E+03
    -29.923  0.0000E+00  0.0000E+00  0.1440E+03  0.1440E+03
    -29.683  0.0000E+00  0.0000E+00  0.1440E+03  0.1440E+03
    -29.443  0.0000E+00  0.0000E+00  0.1440E+03  0.1440E+03
    -29.203  0.0000E+00  0.0000E+00  0.1440E+03  0.1440E+03
    -28.963  0.0000E+00  0.0000E+00  0.1440E+03  0.1440E+03
    -28.723  0.0000E+00  0.0000E+00  0.1440E+03  0.1440E+03
    -28.483  0.0000E+00  0.0000E+00  0.1440E+03  0.1440E+03
    -28.243  0.0000E+00  0.0000E+00  0.1440E+03  0.1440E+03
    -28.002  0.0000E+00  0.0000E+00  0.1440E+03  0.1440E+03
    -27.762  0.0000E+00  0.0000E+00  0.1440E+03  0.1440E+03
    -27.522  0.0000E+00  0.0000E+00  0.1440E+03  0.1440E+03
    -27.282  0.0000E+00  0.0000E+00  0.1440E+03  0.1440E+03
    -27.042  0.0000E+00  0.0000E+00  0.1440E+03  0.1440E+03
    -26.802  0.0000E+00  0.0000E+00  0.1440E+03  0.1440E+03
    -26.562  0.0000E+00  0.0000E+00  0.1440E+03  0.1440E+03
    -26.322  0.0000E+00  0.0000E+00  0.1440E+03  0.1440E+03
    -26.081  0.0000E+00  0.0000E+00  0.1440E+03  0.1440E+03
    -25.841  0.0000E+00  0.0000E+00  0.1440E+03  0.1440E+03
    -25.601  0.0000E+00  0.0000E+00  0.1440E+03  0.1440E+03
    -25.361  0.0000E+00  0.0000E+00  0.1440E+03  0.1440E+03
    -25.121  0.0000E+00  0.0000E+00  0.1440E+03  0.1440E+03
    -24.881  0.0000E+00  0.0000E+00  0.1440E+03  0.1440E+03
    -24.641  0.0000E+00  0.0000E+00  0.1440E+03  0.1440E+03
    -24.401  0.0000E+00  0.0000E+00  0.1440E+03  0.1440E+03
    -24.160  0.0000E+00  0.0000E+00  0.1440E+03  0.1440E+03
    -23.920  0.0000E+00  0.0000E+00  0.1440E+03  0.1440E+03
    -23.680  0.0000E+00  0.0000E+00  0.1440E+03  0.1440E+03
    -23.440  0.0000E+00  0.0000E+00  0.1440E+03  0.1440E+03
    -23.200  0.0000E+00  0.0000E+00  0.1440E+03  0.1440E+03
    -22.960  0.0000E+00  0.0000E+00  0.1440E+03  0.1440E+03
    -22.720  0.0000E+00  0.0000E+00  0.1440E+03  0.1440E+03
    -22.480  0.0000E+00  0.0000E+00  0.1440E+03  0.1440E+03
    -22.239  0.0000E+00  0.0000E+00  0.1440E+03  0.1440E+03
    -21.999  0.0000E+00  0.0000E+00  0.1440E+03  0.1440E+03
    -21.759  0.0000E+00  0.0000E+00  0.1440E+03  0.1440E+03
    -21.519  0.0000E+00  0.0000E+00  0.1440E+03  0.1440E+03
    -21.279  0.0000E+00  0.0000E+00  0.1440E+03  0.1440E+03
    -21.039  0.0000E+00  0.0000E+00  0.1440E+03  0.1440E+03
    -20.799  0.0000E+00  0.0000E+00  0.1440E+03  0.1440E+03
    -20.559  0.0000E+00  0.0000E+00  0.1440E+03  0.1440E+03
    -20.318  0.0000E+00  0.0000E+00  0.1440E+03  0.1440E+03
    -20.078  0.0000E+00  0.0000E+00  0.1440E+03  0.1440E+03
    -19.838  0.0000E+00  0.0000E+00  0.1440E+03  0.1440E+03
    -19.598  0.0000E+00  0.0000E+00  0.1440E+03  0.1440E+03
    -19.358  0.0000E+00  0.0000E+00  0.1440E+03  0.1440E+03
    -19.118  0.0000E+00  0.0000E+00  0.1440E+03  0.1440E+03
    -18.878  0.0000E+00  0.0000E+00  0.1440E+03  0.1440E+03
    -18.638  0.0000E+00  0.0000E+00  0.1440E+03  0.1440E+03
    -18.397  0.0000E+00  0.0000E+00  0.1440E+03  0.1440E+03
    -18.157  0.0000E+00  0.0000E+00  0.1440E+03  0.1440E+03
    -17.917  0.0000E+00  0.0000E+00  0.1440E+03  0.1440E+03
    -17.677  0.0000E+00  0.0000E+00  0.1440E+03  0.1440E+03
    -17.437  0.0000E+00  0.0000E+00  0.1440E+03  0.1440E+03
    -17.197  0.0000E+00  0.0000E+00  0.1440E+03  0.1440E+03
    -16.957  0.0000E+00  0.0000E+00  0.1440E+03  0.1440E+03
    -16.716  0.0000E+00  0.0000E+00  0.1440E+03  0.1440E+03
    -16.476  0.0000E+00  0.0000E+00  0.1440E+03  0.1440E+03
    -16.236  0.0000E+00  0.0000E+00  0.1440E+03  0.1440E+03
    -15.996  0.0000E+00  0.0000E+00  0.1440E+03  0.1440E+03
    -15.756  0.0000E+00  0.0000E+00  0.1440E+03  0.1440E+03
    -15.516  0.0000E+00  0.0000E+00  0.1440E+03  0.1440E+03
    -15.276  0.0000E+00  0.0000E+00  0.1440E+03  0.1440E+03
    -15.036  0.0000E+00  0.0000E+00  0.1440E+03  0.1440E+03
    -14.795  0.0000E+00  0.0000E+00  0.1440E+03  0.1440E+03
    -14.555  0.0000E+00  0.0000E+00  0.1440E+03  0.1440E+03
    -14.315  0.0000E+00  0.0000E+00  0.1440E+03  0.1440E+03
    -14.075  0.0000E+00  0.0000E+00  0.1440E+03  0.1440E+03
    -13.835  0.0000E+00  0.0000E+00  0.1440E+03  0.1440E+03
    -13.595  0.0000E+00  0.0000E+00  0.1440E+03  0.1440E+03
    -13.355  0.0000E+00  0.0000E+00  0.1440E+03  0.1440E+03
    -13.115  0.0000E+00  0.0000E+00  0.1440E+03  0.1440E+03
    -12.874  0.2819E-01  0.0000E+00  0.1440E+03  0.1440E+03
    -12.634  0.7307E+02  0.5217E-03  0.1616E+03  0.1440E+03
    -12.394  0.1867E+01  0.6419E+02  0.1620E+03  0.1594E+03
    -12.154  0.0000E+00  0.1077E+02  0.1620E+03  0.1620E+03
    -11.914  0.0000E+00  0.0000E+00  0.1620E+03  0.1620E+03
    -11.674  0.0000E+00  0.0000E+00  0.1620E+03  0.1620E+03
    -11.434  0.0000E+00  0.0000E+00  0.1620E+03  0.1620E+03
    -11.194  0.0000E+00  0.0000E+00  0.1620E+03  0.1620E+03
    -10.953  0.0000E+00  0.0000E+00  0.1620E+03  0.1620E+03
    -10.713  0.0000E+00  0.0000E+00  0.1620E+03  0.1620E+03
    -10.473  0.0000E+00  0.0000E+00  0.1620E+03  0.1620E+03
    -10.233  0.0000E+00  0.0000E+00  0.1620E+03  0.1620E+03
     -9.993  0.0000E+00  0.0000E+00  0.1620E+03  0.1620E+03
     -9.753  0.0000E+00  0.0000E+00  0.1620E+03  0.1620E+03
     -9.513  0.0000E+00  0.0000E+00  0.1620E+03  0.1620E+03
     -9.273  0.0000E+00  0.0000E+00  0.1620E+03  0.1620E+03
     -9.032  0.0000E+00  0.0000E+00  0.1620E+03  0.1620E+03
     -8.792  0.0000E+00  0.0000E+00  0.1620E+03  0.1620E+03
     -8.552  0.0000E+00  0.0000E+00  0.1620E+03  0.1620E+03
     -8.312  0.0000E+00  0.0000E+00  0.1620E+03  0.1620E+03
     -8.072  0.0000E+00  0.0000E+00  0.1620E+03  0.1620E+03
     -7.832  0.7372E-02  0.1259E-14  0.1620E+03  0.1620E+03
     -7.592  0.7882E+01  0.8391E-01  0.1639E+03  0.1620E+03
     -7.352  0.1437E+02  0.9679E+01  0.1673E+03  0.1643E+03
     -7.111  0.2455E+02  0.1716E+02  0.1732E+03  0.1685E+03
     -6.871  0.7383E+02  0.2410E+02  0.1910E+03  0.1743E+03
     -6.631  0.2928E+02  0.6999E+02  0.1980E+03  0.1911E+03
     -6.391  0.1559E-03  0.2889E+02  0.1980E+03  0.1980E+03
     -6.151  0.0000E+00  0.1236E-01  0.1980E+03  0.1980E+03
     -5.911  0.0000E+00  0.0000E+00  0.1980E+03  0.1980E+03
     -5.671  0.0000E+00  0.0000E+00  0.1980E+03  0.1980E+03
     -5.431  0.0000E+00  0.0000E+00  0.1980E+03  0.1980E+03
     -5.190  0.0000E+00  0.0000E+00  0.1980E+03  0.1980E+03
     -4.950  0.0000E+00  0.0000E+00  0.1980E+03  0.1980E+03
     -4.710  0.0000E+00  0.0000E+00  0.1980E+03  0.1980E+03
     -4.470  0.0000E+00  0.0000E+00  0.1980E+03  0.1980E+03
     -4.230  0.0000E+00  0.0000E+00  0.1980E+03  0.1980E+03
     -3.990  0.0000E+00  0.0000E+00  0.1980E+03  0.1980E+03
     -3.750  0.0000E+00  0.0000E+00  0.1980E+03  0.1980E+03
     -3.510  0.0000E+00  0.0000E+00  0.1980E+03  0.1980E+03
     -3.269  0.0000E+00  0.0000E+00  0.1980E+03  0.1980E+03
     -3.029  0.0000E+00  0.0000E+00  0.1980E+03  0.1980E+03
     -2.789  0.0000E+00  0.0000E+00  0.1980E+03  0.1980E+03
     -2.549  0.0000E+00  0.0000E+00  0.1980E+03  0.1980E+03
     -2.309  0.0000E+00  0.0000E+00  0.1980E+03  0.1980E+03
     -2.069  0.0000E+00  0.0000E+00  0.1980E+03  0.1980E+03
     -1.829  0.3468E-15  0.0000E+00  0.1980E+03  0.1980E+03
     -1.588  0.1357E+00  0.0000E+00  0.1980E+03  0.1980E+03
     -1.348  0.4613E+02  0.0000E+00  0.2091E+03  0.1980E+03
     -1.108  0.2869E+02  0.0000E+00  0.2160E+03  0.1980E+03
     -0.868  0.3046E+01  0.0000E+00  0.2167E+03  0.1980E+03
     -0.628  0.4004E+02  0.4492E-10  0.2263E+03  0.1980E+03
     -0.388  0.1087E+03  0.1279E+01  0.2525E+03  0.1983E+03
     -0.148  0.1164E+03  0.1259E+02  0.2804E+03  0.2013E+03
      0.092  0.1053E+03  0.1996E+02  0.3057E+03  0.2061E+03
      0.333  0.8739E+02  0.2745E+02  0.3267E+03  0.2127E+03
      0.573  0.7710E+02  0.3072E+02  0.3452E+03  0.2201E+03
      0.813  0.3492E+02  0.3775E+02  0.3536E+03  0.2292E+03
      1.053  0.3017E+02  0.3577E+02  0.3608E+03  0.2377E+03
      1.293  0.5002E+02  0.4697E+02  0.3728E+03  0.2490E+03
      1.533  0.3199E+02  0.3085E+02  0.3805E+03  0.2564E+03
      1.773  0.5648E+02  0.6145E+02  0.3941E+03  0.2712E+03
      2.013  0.1236E+03  0.4737E+02  0.4238E+03  0.2826E+03
      2.254  0.7867E+02  0.1853E+02  0.4426E+03  0.2870E+03
      2.494  0.5333E+02  0.3017E+02  0.4554E+03  0.2943E+03
      2.734  0.3976E+02  0.5975E+02  0.4650E+03  0.3086E+03
      2.974  0.2543E+02  0.4988E+02  0.4711E+03  0.3206E+03
      3.214  0.1588E+02  0.5620E+02  0.4749E+03  0.3341E+03
      3.454  0.2742E+02  0.7524E+02  0.4815E+03  0.3521E+03
      3.694  0.4046E+02  0.2680E+02  0.4912E+03  0.3586E+03
      3.934  0.4248E+02  0.1941E+02  0.5014E+03  0.3632E+03
      4.175  0.4501E+02  0.9320E+02  0.5122E+03  0.3856E+03
      4.415  0.4527E+02  0.4150E+02  0.5231E+03  0.3956E+03
      4.655  0.2501E+02  0.1735E+01  0.5291E+03  0.3960E+03
      4.895  0.2763E+02  0.1532E-05  0.5357E+03  0.3960E+03
      5.135  0.1772E+02  0.0000E+00  0.5400E+03  0.3960E+03
      5.375  0.4092E-01  0.0000E+00  0.5400E+03  0.3960E+03
      5.615  0.0000E+00  0.0000E+00  0.5400E+03  0.3960E+03
      5.855  0.0000E+00  0.0000E+00  0.5400E+03  0.3960E+03
      6.096  0.0000E+00  0.2605E-13  0.5400E+03  0.3960E+03
      6.336  0.0000E+00  0.1639E+00  0.5400E+03  0.3960E+03
      6.576  0.0000E+00  0.4401E+01  0.5400E+03  0.3971E+03
      6.816  0.0000E+00  0.1371E+02  0.5400E+03  0.4004E+03
      7.056  0.0000E+00  0.2980E+02  0.5400E+03  0.4075E+03
      7.296  0.5473E-05  0.5649E+02  0.5400E+03  0.4211E+03
      7.536  0.5183E+00  0.7983E+02  0.5401E+03  0.4403E+03
      7.776  0.2310E+01  0.6759E+02  0.5407E+03  0.4565E+03
      8.017  0.1638E+01  0.8286E+02  0.5411E+03  0.4764E+03
      8.257  0.7095E+01  0.9929E+02  0.5428E+03  0.5002E+03
      8.497  0.7703E+01  0.3905E+02  0.5446E+03  0.5096E+03
      8.737  0.4745E+01  0.4418E+02  0.5458E+03  0.5202E+03
      8.977  0.1124E+02  0.4047E+02  0.5485E+03  0.5300E+03
      9.217  0.2025E+02  0.3946E+02  0.5533E+03  0.5394E+03
      9.457  0.2071E+02  0.1500E+02  0.5583E+03  0.5430E+03
      9.697  0.3069E+02  0.1577E+02  0.5657E+03  0.5468E+03
      9.938  0.2766E+02  0.1310E+02  0.5723E+03  0.5500E+03
     10.178  0.1739E+02  0.2540E+02  0.5765E+03  0.5561E+03
     10.418  0.1458E+02  0.2245E+02  0.5800E+03  0.5615E+03
     10.658  0.1887E+02  0.2750E+02  0.5845E+03  0.5681E+03
     10.898  0.2367E+02  0.2497E+02  0.5902E+03  0.5741E+03
     11.138  0.2868E+02  0.2506E+02  0.5971E+03  0.5801E+03
     11.378  0.2926E+02  0.2024E+02  0.6041E+03  0.5849E+03
     11.618  0.3031E+02  0.2441E+02  0.6114E+03  0.5908E+03
     11.859  0.2994E+02  0.2674E+02  0.6186E+03  0.5972E+03
     12.099  0.4159E+02  0.2663E+02  0.6286E+03  0.6036E+03
     12.339  0.5028E+02  0.3629E+02  0.6406E+03  0.6123E+03
     12.579  0.2557E+02  0.3803E+02  0.6468E+03  0.6215E+03
     12.819  0.2733E+02  0.4662E+02  0.6533E+03  0.6326E+03
     13.059  0.3295E+02  0.3555E+02  0.6613E+03  0.6412E+03
     13.299  0.3683E+02  0.2988E+02  0.6701E+03  0.6484E+03
     13.539  0.2457E+02  0.4837E+02  0.6760E+03  0.6600E+03
     13.780  0.1254E+02  0.3867E+02  0.6790E+03  0.6693E+03
     14.020  0.4107E+01  0.2094E+02  0.6800E+03  0.6743E+03
     14.260  0.2926E-02  0.1808E+02  0.6800E+03  0.6786E+03
     14.500  0.0000E+00  0.5706E+01  0.6800E+03  0.6800E+03
     14.740  0.0000E+00  0.5402E-05  0.6800E+03  0.6800E+03
     14.980  0.0000E+00  0.0000E+00  0.6800E+03  0.6800E+03
     15.220  0.0000E+00  0.0000E+00  0.6800E+03  0.6800E+03
     15.461  0.0000E+00  0.0000E+00  0.6800E+03  0.6800E+03
     15.701  0.0000E+00  0.0000E+00  0.6800E+03  0.6800E+03
     15.941  0.0000E+00  0.0000E+00  0.6800E+03  0.6800E+03
     16.181  0.0000E+00  0.0000E+00  0.6800E+03  0.6800E+03
     16.421  0.0000E+00  0.0000E+00  0.6800E+03  0.6800E+03
     16.661  0.0000E+00  0.0000E+00  0.6800E+03  0.6800E+03
     16.901  0.0000E+00  0.0000E+00  0.6800E+03  0.6800E+03
     17.141  0.0000E+00  0.0000E+00  0.6800E+03  0.6800E+03
     17.382  0.0000E+00  0.0000E+00  0.6800E+03  0.6800E+03
     17.622  0.0000E+00  0.0000E+00  0.6800E+03  0.6800E+03
