 160 160   0   0
  0.1218736E+02  0.1542482E-08  0.1121024E-08  0.1127703E-08  0.5000000E-15
  1.000000000000000E-004
  CAR 
 unknown system                          
     16.85426495    -54.74239451  301      4.95132031      1.00000000
    -54.742  0.0000E+00  0.0000E+00  0.0000E+00  0.0000E+00
    -54.504  0.0000E+00  0.0000E+00  0.0000E+00  0.0000E+00
    -54.265  0.0000E+00  0.0000E+00  0.0000E+00  0.0000E+00
    -54.026  0.0000E+00  0.0000E+00  0.0000E+00  0.0000E+00
    -53.788  0.0000E+00  0.0000E+00  0.0000E+00  0.0000E+00
    -53.549  0.0000E+00  0.0000E+00  0.0000E+00  0.0000E+00
    -53.310  0.0000E+00  0.0000E+00  0.0000E+00  0.0000E+00
    -53.072  0.0000E+00  0.0000E+00  0.0000E+00  0.0000E+00
    -52.833  0.0000E+00  0.0000E+00  0.0000E+00  0.0000E+00
    -52.594  0.0000E+00  0.0000E+00  0.0000E+00  0.0000E+00
    -52.356  0.0000E+00  0.0000E+00  0.0000E+00  0.0000E+00
    -52.117  0.0000E+00  0.0000E+00  0.0000E+00  0.0000E+00
    -51.879  0.0000E+00  0.0000E+00  0.0000E+00  0.0000E+00
    -51.640  0.9086E-03  0.0000E+00  0.2168E-03  0.0000E+00
    -51.401  0.1330E+03  0.0000E+00  0.3174E+02  0.0000E+00
    -51.163  0.1108E+01  0.0000E+00  0.3200E+02  0.0000E+00
    -50.924  0.0000E+00  0.0000E+00  0.3200E+02  0.0000E+00
    -50.685  0.0000E+00  0.0000E+00  0.3200E+02  0.0000E+00
    -50.447  0.0000E+00  0.0000E+00  0.3200E+02  0.0000E+00
    -50.208  0.9270E-01  0.0000E+00  0.3202E+02  0.0000E+00
    -49.969  0.2662E+03  0.0000E+00  0.9555E+02  0.0000E+00
    -49.731  0.1900E+01  0.0000E+00  0.9600E+02  0.0000E+00
    -49.492  0.0000E+00  0.0000E+00  0.9600E+02  0.0000E+00
    -49.253  0.0000E+00  0.0000E+00  0.9600E+02  0.0000E+00
    -49.015  0.0000E+00  0.0000E+00  0.9600E+02  0.0000E+00
    -48.776  0.0000E+00  0.0000E+00  0.9600E+02  0.0000E+00
    -48.537  0.0000E+00  0.0000E+00  0.9600E+02  0.0000E+00
    -48.299  0.0000E+00  0.0000E+00  0.9600E+02  0.0000E+00
    -48.060  0.0000E+00  0.0000E+00  0.9600E+02  0.0000E+00
    -47.821  0.0000E+00  0.0000E+00  0.9600E+02  0.0000E+00
    -47.583  0.0000E+00  0.0000E+00  0.9600E+02  0.0000E+00
    -47.344  0.0000E+00  0.0000E+00  0.9600E+02  0.0000E+00
    -47.105  0.0000E+00  0.0000E+00  0.9600E+02  0.0000E+00
    -46.867  0.0000E+00  0.2795E-01  0.9600E+02  0.6670E-02
    -46.628  0.0000E+00  0.1340E+03  0.9600E+02  0.3198E+02
    -46.389  0.0000E+00  0.5913E+02  0.9600E+02  0.4609E+02
    -46.151  0.0000E+00  0.2091E+03  0.9600E+02  0.9600E+02
    -45.912  0.0000E+00  0.0000E+00  0.9600E+02  0.9600E+02
    -45.673  0.0000E+00  0.0000E+00  0.9600E+02  0.9600E+02
    -45.435  0.0000E+00  0.0000E+00  0.9600E+02  0.9600E+02
    -45.196  0.0000E+00  0.0000E+00  0.9600E+02  0.9600E+02
    -44.958  0.0000E+00  0.0000E+00  0.9600E+02  0.9600E+02
    -44.719  0.0000E+00  0.0000E+00  0.9600E+02  0.9600E+02
    -44.480  0.0000E+00  0.0000E+00  0.9600E+02  0.9600E+02
    -44.242  0.0000E+00  0.0000E+00  0.9600E+02  0.9600E+02
    -44.003  0.0000E+00  0.0000E+00  0.9600E+02  0.9600E+02
    -43.764  0.0000E+00  0.0000E+00  0.9600E+02  0.9600E+02
    -43.526  0.0000E+00  0.0000E+00  0.9600E+02  0.9600E+02
    -43.287  0.0000E+00  0.0000E+00  0.9600E+02  0.9600E+02
    -43.048  0.0000E+00  0.0000E+00  0.9600E+02  0.9600E+02
    -42.810  0.0000E+00  0.0000E+00  0.9600E+02  0.9600E+02
    -42.571  0.0000E+00  0.0000E+00  0.9600E+02  0.9600E+02
    -42.332  0.0000E+00  0.0000E+00  0.9600E+02  0.9600E+02
    -42.094  0.0000E+00  0.0000E+00  0.9600E+02  0.9600E+02
    -41.855  0.0000E+00  0.0000E+00  0.9600E+02  0.9600E+02
    -41.616  0.0000E+00  0.0000E+00  0.9600E+02  0.9600E+02
    -41.378  0.0000E+00  0.0000E+00  0.9600E+02  0.9600E+02
    -41.139  0.0000E+00  0.0000E+00  0.9600E+02  0.9600E+02
    -40.900  0.0000E+00  0.0000E+00  0.9600E+02  0.9600E+02
    -40.662  0.0000E+00  0.0000E+00  0.9600E+02  0.9600E+02
    -40.423  0.7622E+00  0.6763E+00  0.9618E+02  0.9616E+02
    -40.184  0.2453E+03  0.2470E+03  0.1547E+03  0.1551E+03
    -39.946  0.2216E+02  0.2045E+02  0.1600E+03  0.1600E+03
    -39.707  0.0000E+00  0.0000E+00  0.1600E+03  0.1600E+03
    -39.468  0.0000E+00  0.0000E+00  0.1600E+03  0.1600E+03
    -39.230  0.0000E+00  0.0000E+00  0.1600E+03  0.1600E+03
    -38.991  0.0000E+00  0.0000E+00  0.1600E+03  0.1600E+03
    -38.752  0.0000E+00  0.0000E+00  0.1600E+03  0.1600E+03
    -38.514  0.0000E+00  0.0000E+00  0.1600E+03  0.1600E+03
    -38.275  0.0000E+00  0.0000E+00  0.1600E+03  0.1600E+03
    -38.037  0.0000E+00  0.0000E+00  0.1600E+03  0.1600E+03
    -37.798  0.0000E+00  0.0000E+00  0.1600E+03  0.1600E+03
    -37.559  0.0000E+00  0.0000E+00  0.1600E+03  0.1600E+03
    -37.321  0.0000E+00  0.0000E+00  0.1600E+03  0.1600E+03
    -37.082  0.0000E+00  0.0000E+00  0.1600E+03  0.1600E+03
    -36.843  0.0000E+00  0.0000E+00  0.1600E+03  0.1600E+03
    -36.605  0.0000E+00  0.0000E+00  0.1600E+03  0.1600E+03
    -36.366  0.0000E+00  0.0000E+00  0.1600E+03  0.1600E+03
    -36.127  0.0000E+00  0.0000E+00  0.1600E+03  0.1600E+03
    -35.889  0.0000E+00  0.0000E+00  0.1600E+03  0.1600E+03
    -35.650  0.0000E+00  0.0000E+00  0.1600E+03  0.1600E+03
    -35.411  0.0000E+00  0.0000E+00  0.1600E+03  0.1600E+03
    -35.173  0.0000E+00  0.0000E+00  0.1600E+03  0.1600E+03
    -34.934  0.0000E+00  0.0000E+00  0.1600E+03  0.1600E+03
    -34.695  0.0000E+00  0.0000E+00  0.1600E+03  0.1600E+03
    -34.457  0.0000E+00  0.0000E+00  0.1600E+03  0.1600E+03
    -34.218  0.0000E+00  0.0000E+00  0.1600E+03  0.1600E+03
    -33.979  0.0000E+00  0.0000E+00  0.1600E+03  0.1600E+03
    -33.741  0.0000E+00  0.0000E+00  0.1600E+03  0.1600E+03
    -33.502  0.0000E+00  0.0000E+00  0.1600E+03  0.1600E+03
    -33.263  0.0000E+00  0.0000E+00  0.1600E+03  0.1600E+03
    -33.025  0.0000E+00  0.0000E+00  0.1600E+03  0.1600E+03
    -32.786  0.0000E+00  0.0000E+00  0.1600E+03  0.1600E+03
    -32.547  0.0000E+00  0.0000E+00  0.1600E+03  0.1600E+03
    -32.309  0.0000E+00  0.0000E+00  0.1600E+03  0.1600E+03
    -32.070  0.0000E+00  0.0000E+00  0.1600E+03  0.1600E+03
    -31.831  0.0000E+00  0.0000E+00  0.1600E+03  0.1600E+03
    -31.593  0.0000E+00  0.0000E+00  0.1600E+03  0.1600E+03
    -31.354  0.0000E+00  0.0000E+00  0.1600E+03  0.1600E+03
    -31.115  0.0000E+00  0.0000E+00  0.1600E+03  0.1600E+03
    -30.877  0.0000E+00  0.0000E+00  0.1600E+03  0.1600E+03
    -30.638  0.0000E+00  0.0000E+00  0.1600E+03  0.1600E+03
    -30.400  0.0000E+00  0.0000E+00  0.1600E+03  0.1600E+03
    -30.161  0.0000E+00  0.0000E+00  0.1600E+03  0.1600E+03
    -29.922  0.0000E+00  0.0000E+00  0.1600E+03  0.1600E+03
    -29.684  0.0000E+00  0.0000E+00  0.1600E+03  0.1600E+03
    -29.445  0.0000E+00  0.0000E+00  0.1600E+03  0.1600E+03
    -29.206  0.0000E+00  0.0000E+00  0.1600E+03  0.1600E+03
    -28.968  0.0000E+00  0.0000E+00  0.1600E+03  0.1600E+03
    -28.729  0.0000E+00  0.0000E+00  0.1600E+03  0.1600E+03
    -28.490  0.0000E+00  0.0000E+00  0.1600E+03  0.1600E+03
    -28.252  0.0000E+00  0.0000E+00  0.1600E+03  0.1600E+03
    -28.013  0.0000E+00  0.0000E+00  0.1600E+03  0.1600E+03
    -27.774  0.0000E+00  0.0000E+00  0.1600E+03  0.1600E+03
    -27.536  0.0000E+00  0.0000E+00  0.1600E+03  0.1600E+03
    -27.297  0.0000E+00  0.0000E+00  0.1600E+03  0.1600E+03
    -27.058  0.0000E+00  0.0000E+00  0.1600E+03  0.1600E+03
    -26.820  0.0000E+00  0.0000E+00  0.1600E+03  0.1600E+03
    -26.581  0.0000E+00  0.0000E+00  0.1600E+03  0.1600E+03
    -26.342  0.0000E+00  0.0000E+00  0.1600E+03  0.1600E+03
    -26.104  0.0000E+00  0.0000E+00  0.1600E+03  0.1600E+03
    -25.865  0.0000E+00  0.0000E+00  0.1600E+03  0.1600E+03
    -25.626  0.0000E+00  0.0000E+00  0.1600E+03  0.1600E+03
    -25.388  0.0000E+00  0.0000E+00  0.1600E+03  0.1600E+03
    -25.149  0.0000E+00  0.0000E+00  0.1600E+03  0.1600E+03
    -24.910  0.0000E+00  0.0000E+00  0.1600E+03  0.1600E+03
    -24.672  0.0000E+00  0.0000E+00  0.1600E+03  0.1600E+03
    -24.433  0.0000E+00  0.0000E+00  0.1600E+03  0.1600E+03
    -24.194  0.0000E+00  0.0000E+00  0.1600E+03  0.1600E+03
    -23.956  0.0000E+00  0.0000E+00  0.1600E+03  0.1600E+03
    -23.717  0.0000E+00  0.0000E+00  0.1600E+03  0.1600E+03
    -23.479  0.0000E+00  0.0000E+00  0.1600E+03  0.1600E+03
    -23.240  0.0000E+00  0.0000E+00  0.1600E+03  0.1600E+03
    -23.001  0.0000E+00  0.0000E+00  0.1600E+03  0.1600E+03
    -22.763  0.0000E+00  0.0000E+00  0.1600E+03  0.1600E+03
    -22.524  0.0000E+00  0.0000E+00  0.1600E+03  0.1600E+03
    -22.285  0.0000E+00  0.0000E+00  0.1600E+03  0.1600E+03
    -22.047  0.0000E+00  0.0000E+00  0.1600E+03  0.1600E+03
    -21.808  0.0000E+00  0.0000E+00  0.1600E+03  0.1600E+03
    -21.569  0.0000E+00  0.0000E+00  0.1600E+03  0.1600E+03
    -21.331  0.0000E+00  0.0000E+00  0.1600E+03  0.1600E+03
    -21.092  0.0000E+00  0.0000E+00  0.1600E+03  0.1600E+03
    -20.853  0.0000E+00  0.0000E+00  0.1600E+03  0.1600E+03
    -20.615  0.0000E+00  0.0000E+00  0.1600E+03  0.1600E+03
    -20.376  0.0000E+00  0.0000E+00  0.1600E+03  0.1600E+03
    -20.137  0.0000E+00  0.0000E+00  0.1600E+03  0.1600E+03
    -19.899  0.0000E+00  0.0000E+00  0.1600E+03  0.1600E+03
    -19.660  0.0000E+00  0.0000E+00  0.1600E+03  0.1600E+03
    -19.421  0.0000E+00  0.0000E+00  0.1600E+03  0.1600E+03
    -19.183  0.0000E+00  0.0000E+00  0.1600E+03  0.1600E+03
    -18.944  0.0000E+00  0.0000E+00  0.1600E+03  0.1600E+03
    -18.705  0.0000E+00  0.0000E+00  0.1600E+03  0.1600E+03
    -18.467  0.0000E+00  0.0000E+00  0.1600E+03  0.1600E+03
    -18.228  0.0000E+00  0.0000E+00  0.1600E+03  0.1600E+03
    -17.989  0.0000E+00  0.0000E+00  0.1600E+03  0.1600E+03
    -17.751  0.0000E+00  0.0000E+00  0.1600E+03  0.1600E+03
    -17.512  0.0000E+00  0.0000E+00  0.1600E+03  0.1600E+03
    -17.273  0.0000E+00  0.0000E+00  0.1600E+03  0.1600E+03
    -17.035  0.0000E+00  0.0000E+00  0.1600E+03  0.1600E+03
    -16.796  0.0000E+00  0.0000E+00  0.1600E+03  0.1600E+03
    -16.558  0.0000E+00  0.0000E+00  0.1600E+03  0.1600E+03
    -16.319  0.0000E+00  0.0000E+00  0.1600E+03  0.1600E+03
    -16.080  0.0000E+00  0.0000E+00  0.1600E+03  0.1600E+03
    -15.842  0.0000E+00  0.0000E+00  0.1600E+03  0.1600E+03
    -15.603  0.0000E+00  0.0000E+00  0.1600E+03  0.1600E+03
    -15.364  0.0000E+00  0.0000E+00  0.1600E+03  0.1600E+03
    -15.126  0.0000E+00  0.0000E+00  0.1600E+03  0.1600E+03
    -14.887  0.0000E+00  0.0000E+00  0.1600E+03  0.1600E+03
    -14.648  0.0000E+00  0.0000E+00  0.1600E+03  0.1600E+03
    -14.410  0.0000E+00  0.0000E+00  0.1600E+03  0.1600E+03
    -14.171  0.0000E+00  0.0000E+00  0.1600E+03  0.1600E+03
    -13.932  0.0000E+00  0.0000E+00  0.1600E+03  0.1600E+03
    -13.694  0.1683E-05  0.0000E+00  0.1600E+03  0.1600E+03
    -13.455  0.3338E+02  0.6509E-12  0.1680E+03  0.1600E+03
    -13.216  0.7591E+02  0.4904E+01  0.1861E+03  0.1612E+03
    -12.978  0.2480E+02  0.1080E+03  0.1920E+03  0.1869E+03
    -12.739  0.0000E+00  0.2120E+02  0.1920E+03  0.1920E+03
    -12.500  0.0000E+00  0.0000E+00  0.1920E+03  0.1920E+03
    -12.262  0.0000E+00  0.0000E+00  0.1920E+03  0.1920E+03
    -12.023  0.0000E+00  0.0000E+00  0.1920E+03  0.1920E+03
    -11.784  0.0000E+00  0.0000E+00  0.1920E+03  0.1920E+03
    -11.546  0.0000E+00  0.0000E+00  0.1920E+03  0.1920E+03
    -11.307  0.0000E+00  0.0000E+00  0.1920E+03  0.1920E+03
    -11.068  0.0000E+00  0.0000E+00  0.1920E+03  0.1920E+03
    -10.830  0.0000E+00  0.0000E+00  0.1920E+03  0.1920E+03
    -10.591  0.0000E+00  0.0000E+00  0.1920E+03  0.1920E+03
    -10.352  0.0000E+00  0.0000E+00  0.1920E+03  0.1920E+03
    -10.114  0.0000E+00  0.0000E+00  0.1920E+03  0.1920E+03
     -9.875  0.0000E+00  0.0000E+00  0.1920E+03  0.1920E+03
     -9.636  0.0000E+00  0.0000E+00  0.1920E+03  0.1920E+03
     -9.398  0.0000E+00  0.0000E+00  0.1920E+03  0.1920E+03
     -9.159  0.0000E+00  0.0000E+00  0.1920E+03  0.1920E+03
     -8.921  0.0000E+00  0.0000E+00  0.1920E+03  0.1920E+03
     -8.682  0.0000E+00  0.0000E+00  0.1920E+03  0.1920E+03
     -8.443  0.0000E+00  0.0000E+00  0.1920E+03  0.1920E+03
     -8.205  0.0000E+00  0.0000E+00  0.1920E+03  0.1920E+03
     -7.966  0.0000E+00  0.0000E+00  0.1920E+03  0.1920E+03
     -7.727  0.3645E-02  0.5169E-16  0.1920E+03  0.1920E+03
     -7.489  0.2202E+02  0.9959E-01  0.1973E+03  0.1920E+03
     -7.250  0.6232E+02  0.4070E+02  0.2121E+03  0.2017E+03
     -7.011  0.4781E+02  0.6372E+02  0.2235E+03  0.2169E+03
     -6.773  0.1928E+01  0.2859E+02  0.2240E+03  0.2238E+03
     -6.534  0.0000E+00  0.9706E+00  0.2240E+03  0.2240E+03
     -6.295  0.0000E+00  0.0000E+00  0.2240E+03  0.2240E+03
     -6.057  0.0000E+00  0.0000E+00  0.2240E+03  0.2240E+03
     -5.818  0.0000E+00  0.0000E+00  0.2240E+03  0.2240E+03
     -5.579  0.0000E+00  0.0000E+00  0.2240E+03  0.2240E+03
     -5.341  0.0000E+00  0.0000E+00  0.2240E+03  0.2240E+03
     -5.102  0.0000E+00  0.0000E+00  0.2240E+03  0.2240E+03
     -4.863  0.0000E+00  0.0000E+00  0.2240E+03  0.2240E+03
     -4.625  0.0000E+00  0.0000E+00  0.2240E+03  0.2240E+03
     -4.386  0.0000E+00  0.0000E+00  0.2240E+03  0.2240E+03
     -4.147  0.0000E+00  0.0000E+00  0.2240E+03  0.2240E+03
     -3.909  0.0000E+00  0.0000E+00  0.2240E+03  0.2240E+03
     -3.670  0.0000E+00  0.0000E+00  0.2240E+03  0.2240E+03
     -3.431  0.0000E+00  0.0000E+00  0.2240E+03  0.2240E+03
     -3.193  0.0000E+00  0.0000E+00  0.2240E+03  0.2240E+03
     -2.954  0.0000E+00  0.0000E+00  0.2240E+03  0.2240E+03
     -2.715  0.1981E-04  0.0000E+00  0.2240E+03  0.2240E+03
     -2.477  0.1469E+02  0.0000E+00  0.2275E+03  0.2240E+03
     -2.238  0.1887E+02  0.0000E+00  0.2320E+03  0.2240E+03
     -2.000  0.2231E+02  0.0000E+00  0.2373E+03  0.2240E+03
     -1.761  0.1079E+00  0.0000E+00  0.2374E+03  0.2240E+03
     -1.522  0.2224E+02  0.0000E+00  0.2427E+03  0.2240E+03
     -1.284  0.2853E+02  0.6073E-15  0.2495E+03  0.2240E+03
     -1.045  0.7819E+02  0.7341E-01  0.2681E+03  0.2240E+03
     -0.806  0.7170E+02  0.2075E+02  0.2852E+03  0.2290E+03
     -0.568  0.7026E+02  0.2823E+02  0.3020E+03  0.2357E+03
     -0.329  0.9439E+02  0.1574E+02  0.3245E+03  0.2395E+03
     -0.090  0.1036E+03  0.1442E+02  0.3493E+03  0.2429E+03
      0.148  0.5501E+02  0.2607E+02  0.3624E+03  0.2491E+03
      0.387  0.4751E+02  0.5093E+02  0.3737E+03  0.2613E+03
      0.626  0.5240E+02  0.7883E+02  0.3862E+03  0.2801E+03
      0.864  0.4338E+02  0.7157E+02  0.3966E+03  0.2972E+03
      1.103  0.6238E+02  0.7673E+02  0.4115E+03  0.3155E+03
      1.342  0.8306E+02  0.2996E+02  0.4313E+03  0.3226E+03
      1.580  0.8123E+02  0.3722E+02  0.4507E+03  0.3315E+03
      1.819  0.4253E+02  0.4961E+02  0.4608E+03  0.3434E+03
      2.058  0.3950E+02  0.4387E+02  0.4703E+03  0.3538E+03
      2.296  0.4861E+02  0.2821E+02  0.4819E+03  0.3606E+03
      2.535  0.4272E+02  0.5078E+02  0.4921E+03  0.3727E+03
      2.774  0.5581E+02  0.6793E+02  0.5054E+03  0.3889E+03
      3.012  0.5569E+02  0.8232E+02  0.5187E+03  0.4085E+03
      3.251  0.5436E+02  0.2942E+02  0.5317E+03  0.4156E+03
      3.490  0.4644E+02  0.2184E+02  0.5427E+03  0.4208E+03
      3.728  0.5587E+02  0.4730E+02  0.5561E+03  0.4321E+03
      3.967  0.3787E+02  0.5570E+02  0.5651E+03  0.4454E+03
      4.206  0.2727E+02  0.1110E+02  0.5716E+03  0.4480E+03
      4.444  0.1623E+02  0.6359E-03  0.5755E+03  0.4480E+03
      4.683  0.2152E+01  0.0000E+00  0.5760E+03  0.4480E+03
      4.921  0.1649E-03  0.0000E+00  0.5760E+03  0.4480E+03
      5.160  0.0000E+00  0.0000E+00  0.5760E+03  0.4480E+03
      5.399  0.0000E+00  0.0000E+00  0.5760E+03  0.4480E+03
      5.637  0.0000E+00  0.0000E+00  0.5760E+03  0.4480E+03
      5.876  0.0000E+00  0.0000E+00  0.5760E+03  0.4480E+03
      6.115  0.0000E+00  0.0000E+00  0.5760E+03  0.4480E+03
      6.353  0.0000E+00  0.3869E-11  0.5760E+03  0.4480E+03
      6.592  0.0000E+00  0.1249E+01  0.5760E+03  0.4483E+03
      6.831  0.2843E-15  0.5292E+02  0.5760E+03  0.4609E+03
      7.069  0.2836E-01  0.7700E+02  0.5760E+03  0.4793E+03
      7.308  0.2044E+00  0.5812E+02  0.5761E+03  0.4932E+03
      7.547  0.9593E+00  0.6857E+02  0.5763E+03  0.5095E+03
      7.785  0.1441E+01  0.6323E+02  0.5766E+03  0.5246E+03
      8.024  0.3050E+01  0.9785E+02  0.5774E+03  0.5480E+03
      8.263  0.8301E+01  0.7044E+02  0.5793E+03  0.5648E+03
      8.501  0.1099E+02  0.3557E+02  0.5820E+03  0.5733E+03
      8.740  0.2225E+02  0.1338E+02  0.5873E+03  0.5765E+03
      8.979  0.2763E+02  0.8404E+01  0.5939E+03  0.5785E+03
      9.217  0.2845E+02  0.1150E+02  0.6007E+03  0.5812E+03
      9.456  0.3218E+02  0.2042E+02  0.6083E+03  0.5861E+03
      9.695  0.2945E+02  0.2556E+02  0.6154E+03  0.5922E+03
      9.933  0.2081E+02  0.4163E+02  0.6203E+03  0.6021E+03
     10.172  0.2175E+02  0.3281E+02  0.6255E+03  0.6100E+03
     10.411  0.2573E+02  0.3379E+02  0.6317E+03  0.6180E+03
     10.649  0.4005E+02  0.3289E+02  0.6412E+03  0.6259E+03
     10.888  0.3996E+02  0.2341E+02  0.6507E+03  0.6315E+03
     11.127  0.4452E+02  0.3402E+02  0.6614E+03  0.6396E+03
     11.365  0.4040E+02  0.2329E+02  0.6710E+03  0.6451E+03
     11.604  0.3866E+02  0.3554E+02  0.6802E+03  0.6536E+03
     11.842  0.4771E+02  0.5237E+02  0.6916E+03  0.6661E+03
     12.081  0.3021E+02  0.5790E+02  0.6988E+03  0.6799E+03
     12.320  0.2905E+02  0.4612E+02  0.7058E+03  0.6909E+03
     12.558  0.3357E+02  0.3110E+02  0.7138E+03  0.6984E+03
     12.797  0.4110E+02  0.3249E+02  0.7236E+03  0.7061E+03
     13.036  0.1984E+02  0.3525E+02  0.7283E+03  0.7145E+03
     13.274  0.1518E+02  0.3673E+02  0.7319E+03  0.7233E+03
     13.513  0.2098E+00  0.2893E+02  0.7320E+03  0.7302E+03
     13.752  0.0000E+00  0.7531E+01  0.7320E+03  0.7320E+03
     13.990  0.0000E+00  0.4056E-05  0.7320E+03  0.7320E+03
     14.229  0.0000E+00  0.0000E+00  0.7320E+03  0.7320E+03
     14.468  0.0000E+00  0.0000E+00  0.7320E+03  0.7320E+03
     14.706  0.0000E+00  0.0000E+00  0.7320E+03  0.7320E+03
     14.945  0.0000E+00  0.0000E+00  0.7320E+03  0.7320E+03
     15.184  0.0000E+00  0.0000E+00  0.7320E+03  0.7320E+03
     15.422  0.0000E+00  0.0000E+00  0.7320E+03  0.7320E+03
     15.661  0.0000E+00  0.0000E+00  0.7320E+03  0.7320E+03
     15.900  0.0000E+00  0.0000E+00  0.7320E+03  0.7320E+03
     16.138  0.0000E+00  0.0000E+00  0.7320E+03  0.7320E+03
     16.377  0.0000E+00  0.0000E+00  0.7320E+03  0.7320E+03
     16.616  0.0000E+00  0.0000E+00  0.7320E+03  0.7320E+03
     16.854  0.0000E+00  0.0000E+00  0.7320E+03  0.7320E+03
