 vasp.5.4.4.18Apr17-6-g9f103f2a35 (build Oct 25 2017 14:42:18) complex          
  
 executed on             LinuxIFC date 2021.06.15  09:37:34
 running on   48 total cores
 distrk:  each k-point on   24 cores,    2 groups
 distr:  one band on NCORES_PER_BAND=   6 cores,    4 groups


--------------------------------------------------------------------------------------------------------


 INCAR:
 POTCAR:    PAW_PBE Li_sv 10Sep2004               
 POTCAR:    PAW_PBE Fe_pv 02Aug2007               
 POTCAR:    PAW_PBE S 06Sep2000                   
 POTCAR:    PAW_PBE O 08Apr2002                   

 ----------------------------------------------------------------------------- 
|                                                                             |
|           W    W    AA    RRRRR   N    N  II  N    N   GGGG   !!!           |
|           W    W   A  A   R    R  NN   N  II  NN   N  G    G  !!!           |
|           W    W  A    A  R    R  N N  N  II  N N  N  G       !!!           |
|           W WW W  AAAAAA  RRRRR   N  N N  II  N  N N  G  GGG   !            |
|           WW  WW  A    A  R   R   N   NN  II  N   NN  G    G                |
|           W    W  A    A  R    R  N    N  II  N    N   GGGG   !!!           |
|                                                                             |
|      You have enabled k-point parallelism (KPAR>1).                         |
|      This developmental code was originally  written by Paul Kent at ORNL,  |
|      and carefully double checked in Vienna.                                |
|      GW as well as linear response parallelism added by Martijn Marsman     |
|      and Georg Kresse.                                                      |
|      Carefully verify results versus KPAR=1.                                |
|      Report problems to Paul Kent and Vienna.                               |
|                                                                             |
 ----------------------------------------------------------------------------- 

 POTCAR:    PAW_PBE Li_sv 10Sep2004               
  local pseudopotential read in
  atomic valenz-charges read in
  non local Contribution for L=           0  read in
    real space projection operators read in
  non local Contribution for L=           0  read in
    real space projection operators read in
  non local Contribution for L=           1  read in
    real space projection operators read in
    PAW grid and wavefunctions read in
 
   number of l-projection  operators is LMAX  =           3
   number of lm-projection operators is LMMAX =           5
 
 POTCAR:    PAW_PBE Fe_pv 02Aug2007               
  local pseudopotential read in
  partial core-charges read in
  partial kinetic energy density read in
  atomic valenz-charges read in
  non local Contribution for L=           1  read in
    real space projection operators read in
  non local Contribution for L=           1  read in
    real space projection operators read in
  non local Contribution for L=           2  read in
    real space projection operators read in
  non local Contribution for L=           2  read in
    real space projection operators read in
  non local Contribution for L=           0  read in
    real space projection operators read in
  non local Contribution for L=           0  read in
    real space projection operators read in
    PAW grid and wavefunctions read in
 
   number of l-projection  operators is LMAX  =           6
   number of lm-projection operators is LMMAX =          18
 
 POTCAR:    PAW_PBE S 06Sep2000                   
  local pseudopotential read in
  partial core-charges read in
  partial kinetic energy density read in
  atomic valenz-charges read in
  non local Contribution for L=           0  read in
    real space projection operators read in
  non local Contribution for L=           0  read in
    real space projection operators read in
  non local Contribution for L=           1  read in
    real space projection operators read in
  non local Contribution for L=           1  read in
    real space projection operators read in
    PAW grid and wavefunctions read in
 
   number of l-projection  operators is LMAX  =           4
   number of lm-projection operators is LMMAX =           8
 
 POTCAR:    PAW_PBE O 08Apr2002                   
  local pseudopotential read in
  partial core-charges read in
  partial kinetic energy density read in
  kinetic energy density of atom read in
  atomic valenz-charges read in
  non local Contribution for L=           0  read in
    real space projection operators read in
  non local Contribution for L=           0  read in
    real space projection operators read in
  non local Contribution for L=           1  read in
    real space projection operators read in
  non local Contribution for L=           1  read in
    real space projection operators read in
    PAW grid and wavefunctions read in
 
   number of l-projection  operators is LMAX  =           4
   number of lm-projection operators is LMMAX =           8
 

 ----------------------------------------------------------------------------- 
|                                                                             |
|  ADVICE TO THIS USER RUNNING 'VASP/VAMP'   (HEAR YOUR MASTER'S VOICE ...):  |
|                                                                             |
|      You have a (more or less) 'large supercell' and for larger cells       |
|      it might be more efficient to use real space projection opertators     |
|      So try LREAL= Auto  in the INCAR   file.                               |
|      Mind:          For very  accurate calculation you might also keep the  |
|      reciprocal projection scheme          (i.e. LREAL=.FALSE.)             |
|                                                                             |
 ----------------------------------------------------------------------------- 

  PAW_PBE Li_sv 10Sep2004               :
 energy of atom  1       EATOM= -202.7858
 kinetic energy error for atom=    0.0072 (will be added to EATOM!!)
  PAW_PBE Fe_pv 02Aug2007               :
 energy of atom  2       EATOM=-2457.4239
 kinetic energy error for atom=    0.0041 (will be added to EATOM!!)
  PAW_PBE S 06Sep2000                   :
 energy of atom  3       EATOM= -276.8230
 kinetic energy error for atom=    0.0008 (will be added to EATOM!!)
  PAW_PBE O 08Apr2002                   :
 energy of atom  4       EATOM= -432.3788
 kinetic energy error for atom=    0.0129 (will be added to EATOM!!)
 
 
 POSCAR: # Compound: Li64Fe32S32O32. Old comment:
  positions in direct lattice
  No initial velocities read in
 exchange correlation table for  LEXCH =        8
   RHO(1)=    0.500       N(1)  =     2000
   RHO(2)=  100.500       N(2)  =     4000
 


--------------------------------------------------------------------------------------------------------


 ion  position               nearest neighbor table
   1  0.125  0.250  0.468- 133 1.96 149 1.96 105 2.46
   2  0.625  0.250  0.468- 134 1.96 150 1.96 106 2.46
   3  0.125  0.750  0.468- 135 1.96 151 1.96 107 2.46
   4  0.625  0.750  0.468- 136 1.96 152 1.96 108 2.46
   5  0.125  0.250  0.968- 129 1.96 145 1.96 109 2.46
   6  0.625  0.250  0.968- 130 1.96 146 1.96 110 2.46
   7  0.125  0.750  0.968- 131 1.96 147 1.96 111 2.46
   8  0.625  0.750  0.968- 132 1.96 148 1.96 112 2.46
   9  0.125  0.000  0.282- 137 1.96 153 1.96  97 2.46
  10  0.625  0.000  0.282- 138 1.96 154 1.96  98 2.46
  11  0.125  0.500  0.282- 139 1.96 155 1.96  99 2.46
  12  0.625  0.500  0.282- 140 1.96 156 1.96 100 2.46
  13  0.125  0.000  0.782- 141 1.96 157 1.96 101 2.46
  14  0.625  0.000  0.782- 142 1.96 158 1.96 102 2.46
  15  0.125  0.500  0.782- 143 1.96 159 1.96 103 2.46
  16  0.625  0.500  0.782- 144 1.96 160 1.96 104 2.46
  17  0.375  0.250  0.032- 130 1.96 145 1.96 121 2.46
  18  0.875  0.250  0.032- 129 1.96 146 1.96 122 2.46
  19  0.375  0.750  0.032- 132 1.96 147 1.96 123 2.46
  20  0.875  0.750  0.032- 131 1.96 148 1.96 124 2.46
  21  0.375  0.250  0.532- 134 1.96 149 1.96 125 2.46
  22  0.875  0.250  0.532- 133 1.96 150 1.96 126 2.46
  23  0.375  0.750  0.532- 136 1.96 151 1.96 127 2.46
  24  0.875  0.750  0.532- 135 1.96 152 1.96 128 2.46
  25  0.375  0.000  0.218- 138 1.96 153 1.96 113 2.46
  26  0.875  0.000  0.218- 137 1.96 154 1.96 114 2.46
  27  0.375  0.500  0.218- 140 1.96 155 1.96 115 2.46
  28  0.875  0.500  0.218- 139 1.96 156 1.96 116 2.46
  29  0.375  0.000  0.718- 142 1.96 157 1.96 117 2.46
  30  0.875  0.000  0.718- 141 1.96 158 1.96 118 2.46
  31  0.375  0.500  0.718- 144 1.96 159 1.96 119 2.46
  32  0.875  0.500  0.718- 143 1.96 160 1.96 120 2.46
  33  0.270  0.376  0.375- 155 2.01 149 2.01 119 2.56 121 2.56
  34  0.769  0.375  0.375- 150 2.01 156 2.01 120 2.56 122 2.56
  35  0.269  0.875  0.375- 151 2.01 153 2.01 117 2.56 123 2.56
  36  0.769  0.875  0.375- 152 2.01 154 2.01 118 2.56 124 2.56
  37  0.269  0.375  0.875- 145 2.01 159 2.01 115 2.56 125 2.56
  38  0.769  0.375  0.875- 146 2.01 160 2.01 116 2.56 126 2.56
  39  0.269  0.875  0.875- 147 2.01 157 2.01 113 2.56 127 2.56
  40  0.769  0.875  0.875- 148 2.01 158 2.01 114 2.56 128 2.56
  41  0.231  0.125  0.125- 145 2.01 153 2.01 101 2.56 105 2.56
  42  0.731  0.125  0.125- 146 2.01 154 2.01 102 2.56 106 2.56
  43  0.231  0.625  0.125- 147 2.01 155 2.01 103 2.56 107 2.56
  44  0.731  0.625  0.125- 148 2.01 156 2.01 104 2.56 108 2.56
  45  0.231  0.125  0.625- 149 2.01 157 2.01  97 2.56 109 2.56
  46  0.731  0.125  0.625- 150 2.01 158 2.01  98 2.56 110 2.56
  47  0.231  0.625  0.625- 151 2.01 159 2.01  99 2.56 111 2.56
  48  0.731  0.625  0.625- 152 2.01 160 2.01 100 2.56 112 2.56
  49  0.019  0.375  0.125- 129 2.01 139 2.01 103 2.56 105 2.56
  50  0.519  0.375  0.125- 130 2.01 140 2.01 104 2.56 106 2.56
  51  0.019  0.875  0.125- 131 2.01 137 2.01 101 2.56 107 2.56
  52  0.519  0.875  0.125- 132 2.01 138 2.01 102 2.56 108 2.56
  53  0.019  0.375  0.625- 133 2.01 143 2.01  99 2.56 109 2.56
  54  0.519  0.375  0.625- 134 2.01 144 2.01 100 2.56 110 2.56
  55  0.019  0.875  0.625- 135 2.01 141 2.01  97 2.56 111 2.56
  56  0.519  0.875  0.625- 136 2.01 142 2.01  98 2.56 112 2.56
  57  0.481  0.125  0.375- 134 2.01 138 2.01 117 2.56 121 2.56
  58  0.981  0.125  0.375- 133 2.01 137 2.01 118 2.56 122 2.56
  59  0.481  0.625  0.375- 136 2.01 140 2.01 119 2.56 123 2.56
  60  0.981  0.625  0.375- 135 2.01 139 2.01 120 2.56 124 2.56
  61  0.481  0.125  0.875- 130 2.01 142 2.01 113 2.56 125 2.56
  62  0.981  0.125  0.875- 129 2.01 141 2.01 114 2.56 126 2.56
  63  0.481  0.625  0.875- 132 2.01 144 2.01 115 2.56 127 2.56
  64  0.981  0.625  0.875- 131 2.01 143 2.01 116 2.56 128 2.56
  65  0.486  0.375  0.375- 134 2.00 140 2.00 119 2.62 121 2.62
  66  0.986  0.375  0.375- 133 2.00 139 2.00 120 2.62 122 2.62
  67  0.486  0.875  0.375- 136 2.00 138 2.00 117 2.62 123 2.62
  68  0.986  0.875  0.375- 135 2.00 137 2.00 118 2.62 124 2.62
  69  0.486  0.375  0.875- 130 2.00 144 2.00 115 2.62 125 2.62
  70  0.986  0.375  0.875- 129 2.00 143 2.00 116 2.62 126 2.62
  71  0.486  0.875  0.875- 132 2.00 142 2.00 113 2.62 127 2.62
  72  0.986  0.875  0.875- 131 2.00 141 2.00 114 2.62 128 2.62
  73  0.014  0.125  0.125- 129 2.00 137 2.00 101 2.62 105 2.62
  74  0.514  0.125  0.125- 130 2.00 138 2.00 102 2.62 106 2.62
  75  0.014  0.625  0.125- 131 2.00 139 2.00 103 2.62 107 2.62
  76  0.514  0.625  0.125- 132 2.00 140 2.00 104 2.62 108 2.62
  77  0.014  0.125  0.625- 133 2.00 141 2.00  97 2.62 109 2.62
  78  0.514  0.125  0.625- 134 2.00 142 2.00  98 2.62 110 2.62
  79  0.014  0.625  0.625- 135 2.00 143 2.00  99 2.62 111 2.62
  80  0.514  0.625  0.625- 136 2.00 144 2.00 100 2.62 112 2.62
  81  0.236  0.375  0.125- 145 2.00 155 2.00 103 2.62 105 2.62
  82  0.736  0.375  0.125- 146 2.00 156 2.00 104 2.62 106 2.62
  83  0.236  0.875  0.125- 147 2.00 153 2.00 101 2.62 107 2.62
  84  0.736  0.875  0.125- 148 2.00 154 2.00 102 2.62 108 2.62
  85  0.236  0.375  0.625- 149 2.00 159 2.00  99 2.62 109 2.62
  86  0.736  0.375  0.625- 150 2.00 160 2.00 100 2.62 110 2.62
  87  0.236  0.875  0.625- 151 2.00 157 2.00  97 2.62 111 2.62
  88  0.736  0.875  0.625- 152 2.00 158 2.00  98 2.62 112 2.62
  89  0.264  0.125  0.375- 149 2.00 153 2.00 117 2.62 121 2.62
  90  0.764  0.125  0.375- 150 2.00 154 2.00 118 2.62 122 2.62
  91  0.264  0.625  0.375- 151 2.00 155 2.00 119 2.62 123 2.62
  92  0.764  0.625  0.375- 152 2.00 156 2.00 120 2.62 124 2.62
  93  0.264  0.125  0.875- 145 2.00 157 2.00 113 2.62 125 2.62
  94  0.764  0.125  0.875- 146 2.00 158 2.00 114 2.62 126 2.62
  95  0.264  0.625  0.875- 147 2.00 159 2.00 115 2.62 127 2.62
  96  0.764  0.625  0.875- 148 2.00 160 2.00 116 2.62 128 2.62
  97  0.125  0.000  0.501-   9 2.46  45 2.56  55 2.56  77 2.62  87 2.62
  98  0.625  0.000  0.501-  10 2.46  46 2.56  56 2.56  78 2.62  88 2.62
  99  0.125  0.500  0.501-  11 2.46  47 2.56  53 2.56  79 2.62  85 2.62
 100  0.625  0.500  0.501-  12 2.46  48 2.56  54 2.56  80 2.62  86 2.62
 101  0.125  0.000  0.001-  13 2.46  41 2.56  51 2.56  73 2.62  83 2.62
 102  0.625  0.000  0.001-  14 2.46  42 2.56  52 2.56  74 2.62  84 2.62
 103  0.125  0.500  0.001-  15 2.46  43 2.56  49 2.56  75 2.62  81 2.62
 104  0.625  0.500  0.001-  16 2.46  44 2.56  50 2.56  76 2.62  82 2.62
 105  0.125  0.250  0.249-   1 2.46  41 2.56  49 2.56  73 2.62  81 2.62
 106  0.625  0.250  0.249-   2 2.46  42 2.56  50 2.56  74 2.62  82 2.62
 107  0.125  0.750  0.249-   3 2.46  43 2.56  51 2.56  75 2.62  83 2.62
 108  0.625  0.750  0.249-   4 2.46  44 2.56  52 2.56  76 2.62  84 2.62
 109  0.125  0.250  0.749-   5 2.46  45 2.56  53 2.56  77 2.62  85 2.62
 110  0.625  0.250  0.749-   6 2.46  46 2.56  54 2.56  78 2.62  86 2.62
 111  0.125  0.750  0.749-   7 2.46  47 2.56  55 2.56  79 2.62  87 2.62
 112  0.625  0.750  0.749-   8 2.46  48 2.56  56 2.56  80 2.62  88 2.62
 113  0.375  0.000  0.999-  25 2.46  39 2.56  61 2.56  71 2.62  93 2.62
 114  0.875  0.000  0.999-  26 2.46  40 2.56  62 2.56  72 2.62  94 2.62
 115  0.375  0.500  0.999-  27 2.46  37 2.56  63 2.56  69 2.62  95 2.62
 116  0.875  0.500  0.999-  28 2.46  38 2.56  64 2.56  70 2.62  96 2.62
 117  0.375  0.000  0.499-  29 2.46  35 2.56  57 2.56  67 2.62  89 2.62
 118  0.875  0.000  0.499-  30 2.46  36 2.56  58 2.56  68 2.62  90 2.62
 119  0.375  0.500  0.499-  31 2.46  33 2.56  59 2.56  65 2.62  91 2.62
 120  0.875  0.500  0.499-  32 2.46  34 2.56  60 2.56  66 2.62  92 2.62
 121  0.375  0.250  0.251-  17 2.46  33 2.56  57 2.56  65 2.62  89 2.62
 122  0.875  0.250  0.251-  18 2.46  34 2.56  58 2.56  66 2.62  90 2.62
 123  0.375  0.750  0.251-  19 2.46  35 2.56  59 2.56  67 2.62  91 2.62
 124  0.875  0.750  0.251-  20 2.46  36 2.56  60 2.56  68 2.62  92 2.62
 125  0.375  0.250  0.751-  21 2.46  37 2.56  61 2.56  69 2.62  93 2.62
 126  0.875  0.250  0.751-  22 2.46  38 2.56  62 2.56  70 2.62  94 2.62
 127  0.375  0.750  0.751-  23 2.46  39 2.56  63 2.56  71 2.62  95 2.62
 128  0.875  0.750  0.751-  24 2.46  40 2.56  64 2.56  72 2.62  96 2.62
 129  0.000  0.250  0.000-   5 1.96  18 1.96  70 2.00  73 2.00  49 2.01  62 2.01
 130  0.500  0.250  0.000-   6 1.96  17 1.96  69 2.00  74 2.00  50 2.01  61 2.01
 131  0.000  0.750  0.000-   7 1.96  20 1.96  72 2.00  75 2.00  51 2.01  64 2.01
 132  0.500  0.750  0.000-   8 1.96  19 1.96  71 2.00  76 2.00  52 2.01  63 2.01
 133  0.000  0.250  0.500-   1 1.96  22 1.96  66 2.00  77 2.00  53 2.01  58 2.01
 134  0.500  0.250  0.500-   2 1.96  21 1.96  65 2.00  78 2.00  54 2.01  57 2.01
 135  0.000  0.750  0.500-   3 1.96  24 1.96  68 2.00  79 2.00  55 2.01  60 2.01
 136  0.500  0.750  0.500-   4 1.96  23 1.96  67 2.00  80 2.00  56 2.01  59 2.01
 137  0.000  0.000  0.250-   9 1.96  26 1.96  68 2.00  73 2.00  51 2.01  58 2.01
 138  0.500  0.000  0.250-  10 1.96  25 1.96  67 2.00  74 2.00  52 2.01  57 2.01
 139  0.000  0.500  0.250-  11 1.96  28 1.96  66 2.00  75 2.00  49 2.01  60 2.01
 140  0.500  0.500  0.250-  12 1.96  27 1.96  65 2.00  76 2.00  50 2.01  59 2.01
 141  0.000  0.000  0.750-  13 1.96  30 1.96  72 2.00  77 2.00  55 2.01  62 2.01
 142  0.500  0.000  0.750-  14 1.96  29 1.96  71 2.00  78 2.00  56 2.01  61 2.01
 143  0.000  0.500  0.750-  15 1.96  32 1.96  70 2.00  79 2.00  53 2.01  64 2.01
 144  0.500  0.500  0.750-  16 1.96  31 1.96  69 2.00  80 2.00  54 2.01  63 2.01
 145  0.250  0.250  0.000-   5 1.96  17 1.96  81 2.00  93 2.00  37 2.01  41 2.01
 146  0.750  0.250  0.000-   6 1.96  18 1.96  82 2.00  94 2.00  38 2.01  42 2.01
 147  0.250  0.750  0.000-   7 1.96  19 1.96  83 2.00  95 2.00  39 2.01  43 2.01
 148  0.750  0.750  0.000-   8 1.96  20 1.96  84 2.00  96 2.00  40 2.01  44 2.01
 149  0.250  0.250  0.500-   1 1.96  21 1.96  85 2.00  89 2.00  45 2.01  33 2.01
 150  0.750  0.250  0.500-   2 1.96  22 1.96  86 2.00  90 2.00  34 2.01  46 2.01
 151  0.250  0.750  0.500-   3 1.96  23 1.96  87 2.00  91 2.00  35 2.01  47 2.01
 152  0.750  0.750  0.500-   4 1.96  24 1.96  88 2.00  92 2.00  36 2.01  48 2.01
 153  0.250  0.000  0.250-   9 1.96  25 1.96  83 2.00  89 2.00  35 2.01  41 2.01
 154  0.750  0.000  0.250-  10 1.96  26 1.96  84 2.00  90 2.00  36 2.01  42 2.01
 155  0.250  0.500  0.250-  11 1.96  27 1.96  81 2.00  91 2.00  33 2.01  43 2.01
 156  0.750  0.500  0.250-  12 1.96  28 1.96  82 2.00  92 2.00  34 2.01  44 2.01
 157  0.250  0.000  0.750-  13 1.96  29 1.96  87 2.00  93 2.00  39 2.01  45 2.01
 158  0.750  0.000  0.750-  14 1.96  30 1.96  88 2.00  94 2.00  40 2.01  46 2.01
 159  0.250  0.500  0.750-  15 1.96  31 1.96  85 2.00  95 2.00  37 2.01  47 2.01
 160  0.750  0.500  0.750-  16 1.96  32 1.96  86 2.00  96 2.00  38 2.01  48 2.01
 
  LATTYP: Found a simple orthorhombic cell.
 ALAT       =    11.2102424200
 B/A-ratio  =     1.0059574590
 C/A-ratio  =     1.3759579358
  
  Lattice vectors:
  
 A1 = (   0.0000000000,  11.2102424200,   0.0000000000)
 A2 = (   0.0000000000,   0.0000000000, -11.2770269800)
 A3 = ( -15.4248220200,   0.0000000000,   0.0000000000)


Analysis of symmetry for initial positions (statically):
=====================================================================
 Subroutine PRICEL returns:
 Original cell was already a primitive cell.
 

 Routine SETGRP: Setting up the symmetry group for a 
 simple orthorhombic supercell.


 Subroutine GETGRP returns: Found  1 space group operations
 (whereof  1 operations were pure point group operations)
 out of a pool of  8 trial point group operations.


The static configuration has the point symmetry C_1 .


Analysis of symmetry for dynamics (positions and initial velocities):
=====================================================================
 Subroutine PRICEL returns:
 Original cell was already a primitive cell.
 

 Routine SETGRP: Setting up the symmetry group for a 
 simple orthorhombic supercell.


 Subroutine GETGRP returns: Found  1 space group operations
 (whereof  1 operations were pure point group operations)
 out of a pool of  8 trial point group operations.


The dynamic configuration has the point symmetry C_1 .


Analysis of structural, dynamic, and magnetic symmetry:
=====================================================================
 Subroutine PRICEL returns:
 Original cell was already a primitive cell.
 

 Routine SETGRP: Setting up the symmetry group for a 
 simple orthorhombic supercell.


 Subroutine GETGRP returns: Found  1 space group operations
 (whereof  1 operations were pure point group operations)
 out of a pool of  8 trial point group operations.


The magnetic configuration has the point symmetry C_1 .


 Subroutine INISYM returns: Found  1 space group operations
 (whereof  1 operations are pure point group operations),
 and found     1 'primitive' translations

 
 
 KPOINTS: # No comment                            

Automatic generation of k-mesh.
Space group operators:
 irot       det(A)        alpha          n_x          n_y          n_z        tau_x        tau_y        tau_z
    1     1.000000     0.000000     1.000000     0.000000     0.000000     0.000000     0.000000     0.000000
 
 Subroutine IBZKPT returns following result:
 ===========================================
 
 Found     10 irreducible k-points:
 
 Following reciprocal coordinates:
            Coordinates               Weight
  0.000000  0.000000  0.000000      1.000000
  0.500000  0.000000  0.000000      1.000000
  0.000000  0.333333  0.000000      2.000000
  0.500000  0.333333  0.000000      2.000000
  0.000000  0.000000  0.333333      2.000000
  0.500000  0.000000  0.333333      2.000000
  0.000000  0.333333  0.333333      2.000000
  0.500000  0.333333  0.333333      2.000000
  0.000000 -0.333333  0.333333      2.000000
  0.500000 -0.333333  0.333333      2.000000
 
 Following cartesian coordinates:
            Coordinates               Weight
  0.000000  0.000000  0.000000      1.000000
  0.032415  0.000000  0.000000      1.000000
  0.000000  0.029735  0.000000      2.000000
  0.032415  0.029735  0.000000      2.000000
  0.000000  0.000000  0.029559      2.000000
  0.032415  0.000000  0.029559      2.000000
  0.000000  0.029735  0.029559      2.000000
  0.032415  0.029735  0.029559      2.000000
  0.000000 -0.029735  0.029559      2.000000
  0.032415 -0.029735  0.029559      2.000000
 


--------------------------------------------------------------------------------------------------------




 Dimension of arrays:
   k-points           NKPTS =     10   k-points in BZ     NKDIM =     10   number of bands    NBANDS=    732
   number of dos      NEDOS =    301   number of ions     NIONS =    160
   non local maximal  LDIM  =      6   non local SUM 2l+1 LMDIM =     18
   total plane-waves  NPLWV = ******
   max r-space proj   IRMAX =      1   max aug-charges    IRDMAX= 152654
   dimension x,y,z NGX =   128 NGY =   96 NGZ =   96
   dimension x,y,z NGXF=   256 NGYF=  192 NGZF=  192
   support grid    NGXF=   512 NGYF=  384 NGZF=  384
   ions per type =              64  32  32  32
   NGX,Y,Z   is equivalent  to a cutoff of  13.80, 14.24, 14.15 a.u.
   NGXF,Y,Z  is equivalent  to a cutoff of  27.59, 28.47, 28.30 a.u.

 SYSTEM =  unknown system                          
 POSCAR =  # Compound: Li64Fe32S32O32. Old comment:

 Startparameter for this run:
   NWRITE =      1    write-flag & timer
   PREC   = accura    normal or accurate (medium, high low for compatibility)
   ISTART =      0    job   : 0-new  1-cont  2-samecut
   ICHARG =      1    charge: 1-file 2-atom 10-const
   ISPIN  =      2    spin polarized calculation?
   LNONCOLLINEAR =      F non collinear calculations
   LSORBIT =      F    spin-orbit coupling
   INIWAV =      1    electr: 0-lowe 1-rand  2-diag
   LASPH  =      T    aspherical Exc in radial PAW
   METAGGA=      F    non-selfconsistent MetaGGA calc.

 Electronic Relaxation 1
   ENCUT  =  650.0 eV  47.77 Ry    6.91 a.u.  32.07 23.30 23.44*2*pi/ulx,y,z
   ENINI  =  650.0     initial cutoff
   ENAUG  =  628.9 eV  augmentation charge cutoff
   NELM   =    200;   NELMIN=  8; NELMDL=  0     # of ELM steps 
   EDIFF  = 0.1E-05   stopping-criterion for ELM
   LREAL  =      F    real-space projection
   NLSPLINE    = F    spline interpolate recip. space projectors
   LCOMPAT=      F    compatible to vasp.4.4
   GGA_COMPAT  = T    GGA compatible to vasp.4.4-vasp.4.6
   LMAXPAW     = -100 max onsite density
   LMAXMIX     =    4 max onsite mixed and CHGCAR
   VOSKOWN=      0    Vosko Wilk Nusair interpolation
   ROPT   =    0.00000   0.00000   0.00000   0.00000
 Ionic relaxation
   EDIFFG = 0.1E-04   stopping-criterion for IOM
   NSW    =      0    number of steps for IOM
   NBLOCK =      1;   KBLOCK =      1    inner block; outer block 
   IBRION =     -1    ionic relax: 0-MD 1-quasi-New 2-CG
   NFREE  =      0    steps in history (QN), initial steepest desc. (CG)
   ISIF   =      2    stress and relaxation
   IWAVPR =     10    prediction:  0-non 1-charg 2-wave 3-comb
   ISYM   =      2    0-nonsym 1-usesym 2-fastsym
   LCORR  =      T    Harris-Foulkes like correction to forces

   POTIM  = 0.5000    time-step for ionic-motion
   TEIN   =    0.0    initial temperature
   TEBEG  =    0.0;   TEEND  =   0.0 temperature during run
   SMASS  =  -3.00    Nose mass-parameter (am)
   estimated Nose-frequenzy (Omega)   =  0.10E-29 period in steps =****** mass=  -0.544E-26a.u.
   SCALEE = 1.0000    scale energy and forces
   NPACO  =    256;   APACO  = 16.0  distance and # of slots for P.C.
   PSTRESS=    0.0 pullay stress

  Mass of Ions in am
   POMASS =   7.01 55.85 32.07 16.00
  Ionic Valenz
   ZVAL   =   3.00 14.00  6.00  6.00
  Atomic Wigner-Seitz radii
   RWIGS  =  -1.00 -1.00 -1.00 -1.00
  virtual crystal weights 
   VCA    =   1.00  1.00  1.00  1.00
   NELECT =    1024.0000    total number of electrons
   NUPDOWN=      -1.0000    fix difference up-down

 DOS related values:
   EMIN   =  10.00;   EMAX   =-10.00  energy-range for DOS
   EFERMI =   0.00
   ISMEAR =     0;   SIGMA  =   0.05  broadening in eV -4-tet -1-fermi 0-gaus

 Electronic relaxation 2 (details)
   IALGO  =     38    algorithm
   LDIAG  =      T    sub-space diagonalisation (order eigenvalues)
   LSUBROT=      F    optimize rotation matrix (better conditioning)
   TURBO    =      0    0=normal 1=particle mesh
   IRESTART =      0    0=no restart 2=restart with 2 vectors
   NREBOOT  =      0    no. of reboots
   NMIN     =      0    reboot dimension
   EREF     =   0.00    reference energy to select bands
   IMIX   =      4    mixing-type and parameters
     AMIX     =   0.40;   BMIX     =  1.00
     AMIX_MAG =   1.60;   BMIX_MAG =  1.00
     AMIN     =   0.10
     WC   =   100.;   INIMIX=   1;  MIXPRE=   1;  MAXMIX= -45

 Intra band minimization:
   WEIMIN = 0.0000     energy-eigenvalue tresh-hold
   EBREAK =  0.34E-09  absolut break condition
   DEPER  =   0.30     relativ break condition  

   TIME   =   0.40     timestep for ELM

  volume/ion in A,a.u.               =      12.19        82.24
  Fermi-wavevector in a.u.,A,eV,Ry     =   1.320783  2.495918 23.734934  1.744468
  Thomas-Fermi vector in A             =   2.450584
 
 Write flags
   LWAVE        =      F    write WAVECAR
   LDOWNSAMPLE  =      F    k-point downsampling of WAVECAR
   LCHARG       =      T    write CHGCAR
   LVTOT        =      F    write LOCPOT, total local potential
   LVHAR        =      F    write LOCPOT, Hartree potential only
   LELF         =      F    write electronic localiz. function (ELF)
   LORBIT       =      0    0 simple, 1 ext, 2 COOP (PROOUT), +10 PAW based schemes


 Dipole corrections
   LMONO  =      F    monopole corrections only (constant potential shift)
   LDIPOL =      F    correct potential (dipole corrections)
   IDIPOL =      0    1-x, 2-y, 3-z, 4-all directions 
   EPSILON=  1.0000000 bulk dielectric constant

 LDA+U is selected, type is set to LDAUTYPE =  2
   angular momentum for each species LDAUL =    -1    2   -1   -1
   U (eV)           for each species LDAUU =   0.0  4.0  0.0  0.0
   J (eV)           for each species LDAUJ =   0.0  0.0  0.0  0.0
 Exchange correlation treatment:
   GGA     =    PE    GGA type
   LEXCH   =     8    internal setting for exchange type
   VOSKOWN=      0    Vosko Wilk Nusair interpolation
   LHFCALC =     F    Hartree Fock is set to
   LHFONE  =     F    Hartree Fock one center treatment
   AEXX    =    0.0000 exact exchange contribution

 Linear response parameters
   LEPSILON=     F    determine dielectric tensor
   LRPA    =     F    only Hartree local field effects (RPA)
   LNABLA  =     F    use nabla operator in PAW spheres
   LVEL    =     F    velocity operator in full k-point grid
   LINTERFAST=   F  fast interpolation
   KINTER  =     0    interpolate to denser k-point grid
   CSHIFT  =0.1000    complex shift for real part using Kramers Kronig
   OMEGAMAX=  -1.0    maximum frequency
   DEG_THRESHOLD= 0.2000000E-02 threshold for treating states as degnerate
   RTIME   =   -0.100 relaxation time in fs
  (WPLASMAI=    0.000 imaginary part of plasma frequency in eV, 0.658/RTIME)
   DFIELD  = 0.0000000 0.0000000 0.0000000 field for delta impulse in time
 
 Orbital magnetization related:
   ORBITALMAG=     F  switch on orbital magnetization
   LCHIMAG   =     F  perturbation theory with respect to B field
   DQ        =  0.001000  dq finite difference perturbation B field
   LLRAUG    =     F  two centre corrections for induced B field



--------------------------------------------------------------------------------------------------------


 Static calculation
 charge density and potential will be updated during run
 spin polarized calculation
 Variant of blocked Davidson
 Davidson routine will perform the subspace rotation
 perform sub-space diagonalisation
    after iterative eigenvector-optimisation
 modified Broyden-mixing scheme, WC =      100.0
 initial mixing is a Kerker type mixing with AMIX =  0.4000 and BMIX =      1.0000
 Hartree-type preconditioning will be used
 using additional bands          220
 reciprocal scheme for non local part
 use partial core corrections
 calculate Harris-corrections to forces 
   (improved forces if not selfconsistent)
 use gradient corrections 
 use of overlap-Matrix (Vanderbilt PP)
 Gauss-broadening in eV      SIGMA  =   0.05


--------------------------------------------------------------------------------------------------------


  energy-cutoff  :      650.00
  volume of cell :     1949.98
      direct lattice vectors                 reciprocal lattice vectors
    15.424822020  0.000000000  0.000000000     0.064830570  0.000000000  0.000000000
     0.000000000 11.210242420  0.000000000     0.000000000  0.089204137  0.000000000
     0.000000000  0.000000000 11.277026980     0.000000000  0.000000000  0.088675854

  length of vectors
    15.424822020 11.210242420 11.277026980     0.064830570  0.089204137  0.088675854


 
 k-points in units of 2pi/SCALE and weight: # No comment                            
   0.00000000  0.00000000  0.00000000       0.056
   0.03241528  0.00000000  0.00000000       0.056
   0.00000000  0.02973471  0.00000000       0.111
   0.03241528  0.02973471  0.00000000       0.111
   0.00000000  0.00000000  0.02955862       0.111
   0.03241528  0.00000000  0.02955862       0.111
   0.00000000  0.02973471  0.02955862       0.111
   0.03241528  0.02973471  0.02955862       0.111
   0.00000000 -0.02973471  0.02955862       0.111
   0.03241528 -0.02973471  0.02955862       0.111
 
 k-points in reciprocal lattice and weights: # No comment                            
   0.00000000  0.00000000  0.00000000       0.056
   0.50000000  0.00000000  0.00000000       0.056
   0.00000000  0.33333333  0.00000000       0.111
   0.50000000  0.33333333  0.00000000       0.111
   0.00000000  0.00000000  0.33333333       0.111
   0.50000000  0.00000000  0.33333333       0.111
   0.00000000  0.33333333  0.33333333       0.111
   0.50000000  0.33333333  0.33333333       0.111
   0.00000000 -0.33333333  0.33333333       0.111
   0.50000000 -0.33333333  0.33333333       0.111
 
 position of ions in fractional coordinates (direct lattice) 
   0.12500000  0.25000000  0.46751010
   0.62500000  0.25000000  0.46751010
   0.12500000  0.75000000  0.46751010
   0.62500000  0.75000000  0.46751010
   0.12500000  0.25000000  0.96751010
   0.62500000  0.25000000  0.96751010
   0.12500000  0.75000000  0.96751010
   0.62500000  0.75000000  0.96751010
   0.12500000  0.00000000  0.28248990
   0.62500000  0.00000000  0.28248990
   0.12500000  0.50000000  0.28248990
   0.62500000  0.50000000  0.28248990
   0.12500000  0.00000000  0.78248990
   0.62500000  0.00000000  0.78248990
   0.12500000  0.50000000  0.78248990
   0.62500000  0.50000000  0.78248990
   0.37500000  0.25000000  0.03248990
   0.87500000  0.25000000  0.03248990
   0.37500000  0.75000000  0.03248990
   0.87500000  0.75000000  0.03248990
   0.37500000  0.25000000  0.53248990
   0.87500000  0.25000000  0.53248990
   0.37500000  0.75000000  0.53248990
   0.87500000  0.75000000  0.53248990
   0.37500000  0.00000000  0.21751010
   0.87500000  0.00000000  0.21751010
   0.37500000  0.50000000  0.21751010
   0.87500000  0.50000000  0.21751010
   0.37500000  0.00000000  0.71751010
   0.87500000  0.00000000  0.71751010
   0.37500000  0.50000000  0.71751010
   0.87500000  0.50000000  0.71751010
   0.26976511  0.37552443  0.37500000
   0.76924068  0.37500000  0.37500000
   0.26924068  0.87500000  0.37500000
   0.76924068  0.87500000  0.37500000
   0.26924068  0.37500000  0.87500000
   0.76924068  0.37500000  0.87500000
   0.26924068  0.87500000  0.87500000
   0.76924068  0.87500000  0.87500000
   0.23075932  0.12500000  0.12500000
   0.73075932  0.12500000  0.12500000
   0.23075932  0.62500000  0.12500000
   0.73075932  0.62500000  0.12500000
   0.23075932  0.12500000  0.62500000
   0.73075932  0.12500000  0.62500000
   0.23075932  0.62500000  0.62500000
   0.73075932  0.62500000  0.62500000
   0.01924068  0.37500000  0.12500000
   0.51924068  0.37500000  0.12500000
   0.01924068  0.87500000  0.12500000
   0.51924068  0.87500000  0.12500000
   0.01924068  0.37500000  0.62500000
   0.51924068  0.37500000  0.62500000
   0.01924068  0.87500000  0.62500000
   0.51924068  0.87500000  0.62500000
   0.48075932  0.12500000  0.37500000
   0.98075932  0.12500000  0.37500000
   0.48075932  0.62500000  0.37500000
   0.98075932  0.62500000  0.37500000
   0.48075932  0.12500000  0.87500000
   0.98075932  0.12500000  0.87500000
   0.48075932  0.62500000  0.87500000
   0.98075932  0.62500000  0.87500000
   0.48606648  0.37500000  0.37500000
   0.98606648  0.37500000  0.37500000
   0.48606648  0.87500000  0.37500000
   0.98606648  0.87500000  0.37500000
   0.48606648  0.37500000  0.87500000
   0.98606648  0.37500000  0.87500000
   0.48606648  0.87500000  0.87500000
   0.98606648  0.87500000  0.87500000
   0.01393352  0.12500000  0.12500000
   0.51393352  0.12500000  0.12500000
   0.01393352  0.62500000  0.12500000
   0.51393352  0.62500000  0.12500000
   0.01393352  0.12500000  0.62500000
   0.51393352  0.12500000  0.62500000
   0.01393352  0.62500000  0.62500000
   0.51393352  0.62500000  0.62500000
   0.23606648  0.37500000  0.12500000
   0.73606648  0.37500000  0.12500000
   0.23606648  0.87500000  0.12500000
   0.73606648  0.87500000  0.12500000
   0.23606648  0.37500000  0.62500000
   0.73606648  0.37500000  0.62500000
   0.23606648  0.87500000  0.62500000
   0.73606648  0.87500000  0.62500000
   0.26393352  0.12500000  0.37500000
   0.76393352  0.12500000  0.37500000
   0.26393352  0.62500000  0.37500000
   0.76393352  0.62500000  0.37500000
   0.26393352  0.12500000  0.87500000
   0.76393352  0.12500000  0.87500000
   0.26393352  0.62500000  0.87500000
   0.76393352  0.62500000  0.87500000
   0.12500000  0.00000000  0.50106053
   0.62500000  0.00000000  0.50106053
   0.12500000  0.50000000  0.50106053
   0.62500000  0.50000000  0.50106053
   0.12500000  0.00000000  0.00106053
   0.62500000  0.00000000  0.00106053
   0.12500000  0.50000000  0.00106053
   0.62500000  0.50000000  0.00106053
   0.12500000  0.25000000  0.24893947
   0.62500000  0.25000000  0.24893947
   0.12500000  0.75000000  0.24893947
   0.62500000  0.75000000  0.24893947
   0.12500000  0.25000000  0.74893947
   0.62500000  0.25000000  0.74893947
   0.12500000  0.75000000  0.74893947
   0.62500000  0.75000000  0.74893947
   0.37500000  0.00000000  0.99893947
   0.87500000  0.00000000  0.99893947
   0.37500000  0.50000000  0.99893947
   0.87500000  0.50000000  0.99893947
   0.37500000  0.00000000  0.49893947
   0.87500000  0.00000000  0.49893947
   0.37500000  0.50000000  0.49893947
   0.87500000  0.50000000  0.49893947
   0.37500000  0.25000000  0.25106053
   0.87500000  0.25000000  0.25106053
   0.37500000  0.75000000  0.25106053
   0.87500000  0.75000000  0.25106053
   0.37500000  0.25000000  0.75106053
   0.87500000  0.25000000  0.75106053
   0.37500000  0.75000000  0.75106053
   0.87500000  0.75000000  0.75106053
   0.00000000  0.25000000  0.00000000
   0.50000000  0.25000000  0.00000000
   0.00000000  0.75000000  0.00000000
   0.50000000  0.75000000  0.00000000
   0.00000000  0.25000000  0.50000000
   0.50000000  0.25000000  0.50000000
   0.00000000  0.75000000  0.50000000
   0.50000000  0.75000000  0.50000000
   0.00000000  0.00000000  0.25000000
   0.50000000  0.00000000  0.25000000
   0.00000000  0.50000000  0.25000000
   0.50000000  0.50000000  0.25000000
   0.00000000  0.00000000  0.75000000
   0.50000000  0.00000000  0.75000000
   0.00000000  0.50000000  0.75000000
   0.50000000  0.50000000  0.75000000
   0.25000000  0.25000000  0.00000000
   0.75000000  0.25000000  0.00000000
   0.25000000  0.75000000  0.00000000
   0.75000000  0.75000000  0.00000000
   0.25000000  0.25000000  0.50000000
   0.75000000  0.25000000  0.50000000
   0.25000000  0.75000000  0.50000000
   0.75000000  0.75000000  0.50000000
   0.25000000  0.00000000  0.25000000
   0.75000000  0.00000000  0.25000000
   0.25000000  0.50000000  0.25000000
   0.75000000  0.50000000  0.25000000
   0.25000000  0.00000000  0.75000000
   0.75000000  0.00000000  0.75000000
   0.25000000  0.50000000  0.75000000
   0.75000000  0.50000000  0.75000000
 
 position of ions in cartesian coordinates  (Angst):
   1.92810275  2.80256061  5.27212395
   9.64051376  2.80256061  5.27212395
   1.92810275  8.40768182  5.27212395
   9.64051376  8.40768182  5.27212395
   1.92810275  2.80256061 10.91063744
   9.64051376  2.80256061 10.91063744
   1.92810275  8.40768182 10.91063744
   9.64051376  8.40768182 10.91063744
   1.92810275  0.00000000  3.18564628
   9.64051376  0.00000000  3.18564628
   1.92810275  5.60512121  3.18564628
   9.64051376  5.60512121  3.18564628
   1.92810275  0.00000000  8.82415977
   9.64051376  0.00000000  8.82415977
   1.92810275  5.60512121  8.82415977
   9.64051376  5.60512121  8.82415977
   5.78430826  2.80256061  0.36638954
  13.49671927  2.80256061  0.36638954
   5.78430826  8.40768182  0.36638954
  13.49671927  8.40768182  0.36638954
   5.78430826  2.80256061  6.00490303
  13.49671927  2.80256061  6.00490303
   5.78430826  8.40768182  6.00490303
  13.49671927  8.40768182  6.00490303
   5.78430826  0.00000000  2.45286721
  13.49671927  0.00000000  2.45286721
   5.78430826  5.60512121  2.45286721
  13.49671927  5.60512121  2.45286721
   5.78430826  0.00000000  8.09138070
  13.49671927  0.00000000  8.09138070
   5.78430826  5.60512121  8.09138070
  13.49671927  5.60512121  8.09138070
   4.16107888  4.20971995  4.22888512
  11.86540058  4.20384091  4.22888512
   4.15298957  9.80896212  4.22888512
  11.86540058  9.80896212  4.22888512
   4.15298957  4.20384091  9.86739861
  11.86540058  4.20384091  9.86739861
   4.15298957  9.80896212  9.86739861
  11.86540058  9.80896212  9.86739861
   3.55942144  1.40128030  1.40962837
  11.27183245  1.40128030  1.40962837
   3.55942144  7.00640151  1.40962837
  11.27183245  7.00640151  1.40962837
   3.55942144  1.40128030  7.04814186
  11.27183245  1.40128030  7.04814186
   3.55942144  7.00640151  7.04814186
  11.27183245  7.00640151  7.04814186
   0.29678406  4.20384091  1.40962837
   8.00919507  4.20384091  1.40962837
   0.29678406  9.80896212  1.40962837
   8.00919507  9.80896212  1.40962837
   0.29678406  4.20384091  7.04814186
   8.00919507  4.20384091  7.04814186
   0.29678406  9.80896212  7.04814186
   8.00919507  9.80896212  7.04814186
   7.41562695  1.40128030  4.22888512
  15.12803796  1.40128030  4.22888512
   7.41562695  7.00640151  4.22888512
  15.12803796  7.00640151  4.22888512
   7.41562695  1.40128030  9.86739861
  15.12803796  1.40128030  9.86739861
   7.41562695  7.00640151  9.86739861
  15.12803796  7.00640151  9.86739861
   7.49748887  4.20384091  4.22888512
  15.20989988  4.20384091  4.22888512
   7.49748887  9.80896212  4.22888512
  15.20989988  9.80896212  4.22888512
   7.49748887  4.20384091  9.86739861
  15.20989988  4.20384091  9.86739861
   7.49748887  9.80896212  9.86739861
  15.20989988  9.80896212  9.86739861
   0.21492214  1.40128030  1.40962837
   7.92733315  1.40128030  1.40962837
   0.21492214  7.00640151  1.40962837
   7.92733315  7.00640151  1.40962837
   0.21492214  1.40128030  7.04814186
   7.92733315  1.40128030  7.04814186
   0.21492214  7.00640151  7.04814186
   7.92733315  7.00640151  7.04814186
   3.64128336  4.20384091  1.40962837
  11.35369437  4.20384091  1.40962837
   3.64128336  9.80896212  1.40962837
  11.35369437  9.80896212  1.40962837
   3.64128336  4.20384091  7.04814186
  11.35369437  4.20384091  7.04814186
   3.64128336  9.80896212  7.04814186
  11.35369437  9.80896212  7.04814186
   4.07112765  1.40128030  4.22888512
  11.78353866  1.40128030  4.22888512
   4.07112765  7.00640151  4.22888512
  11.78353866  7.00640151  4.22888512
   4.07112765  1.40128030  9.86739861
  11.78353866  1.40128030  9.86739861
   4.07112765  7.00640151  9.86739861
  11.78353866  7.00640151  9.86739861
   1.92810275  0.00000000  5.65047312
   9.64051376  0.00000000  5.65047312
   1.92810275  5.60512121  5.65047312
   9.64051376  5.60512121  5.65047312
   1.92810275  0.00000000  0.01195963
   9.64051376  0.00000000  0.01195963
   1.92810275  5.60512121  0.01195963
   9.64051376  5.60512121  0.01195963
   1.92810275  2.80256061  2.80729712
   9.64051376  2.80256061  2.80729712
   1.92810275  8.40768182  2.80729712
   9.64051376  8.40768182  2.80729712
   1.92810275  2.80256061  8.44581061
   9.64051376  2.80256061  8.44581061
   1.92810275  8.40768182  8.44581061
   9.64051376  8.40768182  8.44581061
   5.78430826  0.00000000 11.26506735
  13.49671927  0.00000000 11.26506735
   5.78430826  5.60512121 11.26506735
  13.49671927  5.60512121 11.26506735
   5.78430826  0.00000000  5.62655386
  13.49671927  0.00000000  5.62655386
   5.78430826  5.60512121  5.62655386
  13.49671927  5.60512121  5.62655386
   5.78430826  2.80256061  2.83121637
  13.49671927  2.80256061  2.83121637
   5.78430826  8.40768182  2.83121637
  13.49671927  8.40768182  2.83121637
   5.78430826  2.80256061  8.46972986
  13.49671927  2.80256061  8.46972986
   5.78430826  8.40768182  8.46972986
  13.49671927  8.40768182  8.46972986
   0.00000000  2.80256061  0.00000000
   7.71241101  2.80256061  0.00000000
   0.00000000  8.40768182  0.00000000
   7.71241101  8.40768182  0.00000000
   0.00000000  2.80256061  5.63851349
   7.71241101  2.80256061  5.63851349
   0.00000000  8.40768182  5.63851349
   7.71241101  8.40768182  5.63851349
   0.00000000  0.00000000  2.81925675
   7.71241101  0.00000000  2.81925675
   0.00000000  5.60512121  2.81925675
   7.71241101  5.60512121  2.81925675
   0.00000000  0.00000000  8.45777023
   7.71241101  0.00000000  8.45777023
   0.00000000  5.60512121  8.45777023
   7.71241101  5.60512121  8.45777023
   3.85620551  2.80256061  0.00000000
  11.56861652  2.80256061  0.00000000
   3.85620551  8.40768182  0.00000000
  11.56861652  8.40768182  0.00000000
   3.85620551  2.80256061  5.63851349
  11.56861652  2.80256061  5.63851349
   3.85620551  8.40768182  5.63851349
  11.56861652  8.40768182  5.63851349
   3.85620551  0.00000000  2.81925675
  11.56861652  0.00000000  2.81925675
   3.85620551  5.60512121  2.81925675
  11.56861652  5.60512121  2.81925675
   3.85620551  0.00000000  8.45777023
  11.56861652  0.00000000  8.45777023
   3.85620551  5.60512121  8.45777023
  11.56861652  5.60512121  8.45777023
 


--------------------------------------------------------------------------------------------------------


 k-point  1 :   0.0000 0.0000 0.0000  plane waves:   73361
 k-point  2 :   0.5000 0.0000 0.0000  plane waves:   73360
 k-point  3 :   0.0000 0.3333 0.0000  plane waves:   73390
 k-point  4 :   0.5000 0.3333 0.0000  plane waves:   73436
 k-point  5 :   0.0000 0.0000 0.3333  plane waves:   73375
 k-point  6 :   0.5000 0.0000 0.3333  plane waves:   73362
 k-point  7 :   0.0000 0.3333 0.3333  plane waves:   73334
 k-point  8 :   0.5000 0.3333 0.3333  plane waves:   73372
 k-point  9 :   0.0000-0.3333 0.3333  plane waves:   73334
 k-point 10 :   0.5000-0.3333 0.3333  plane waves:   73372

 maximum and minimum number of plane-waves per node :     12308    12161

 maximum number of plane-waves:     73436
 maximum index in each direction: 
   IXMAX=   32   IYMAX=   23   IZMAX=   23
   IXMIN=  -32   IYMIN=  -23   IZMIN=  -23


 parallel 3D FFT for wavefunctions:
    minimum data exchange during FFTs selected (reduces bandwidth)
 parallel 3D FFT for charge:
    minimum data exchange during FFTs selected (reduces bandwidth)


 total amount of memory used by VASP MPI-rank0   984794. kBytes
=======================================================================

   base      :      30000. kBytes
   nonl-proj :     101936. kBytes
   fftplans  :      64934. kBytes
   grid      :      55554. kBytes
   one-center:        839. kBytes
   wavefun   :     731531. kBytes
 
     INWAV:  cpu time    0.0000: real time    0.0000
 Broyden mixing: mesh for mixing (old mesh)
   NGX = 65   NGY = 47   NGZ = 47
  (NGX  =256   NGY  =192   NGZ  =192)
  gives a total of 143585 points

 initial charge density was supplied:
 number of electron    1024.0000020 magnetization     128.0001055
 keeping initial charge density in first step


--------------------------------------------------------------------------------------------------------


 Maximum index for augmentation-charges         8055 (set IRDMAX)


--------------------------------------------------------------------------------------------------------


 First call to EWALD:  gamma=   0.142
 Maximum number of real-space cells 2x 3x 3
 Maximum number of reciprocal cells 3x 3x 3

    FEWALD:  cpu time    0.0224: real time    0.0227


--------------------------------------- Iteration      1(   1)  ---------------------------------------


    POTLOK:  cpu time    0.6777: real time    0.6929
    SETDIJ:  cpu time    1.6528: real time    1.6800
     EDDAV:  cpu time  350.6634: real time  357.3029
       DOS:  cpu time    0.0045: real time    0.0045
    --------------------------------------------
      LOOP:  cpu time  352.9985: real time  359.6803

 eigenvalue-minimisations  : 30688
 total energy-change (2. order) : 0.1345942E+05  (-0.5521204E+05)
 number of electron    1024.0000020 magnetization     128.0001055
 augmentation part     1024.0000020 magnetization     128.0001055

 Free energy of the ion-electron system (eV)
  ---------------------------------------------------
  alpha Z        PSCENC =      2574.33730679
  Ewald energy   TEWEN  =    -67378.56006388
  -Hartree energ DENC   =    -36045.52844257
  -exchange      EXHF   =         0.00000000
  -V(xc)+E(xc)   XCENC  =      4397.16331374
  PAW double counting   =    108725.82191982  -112342.66432617
  entropy T*S    EENTRO =        -0.02974848
  eigenvalues    EBANDS =      -780.40172979
  atomic energy  EATOM  =    114309.28505226
  Solvation  Ediel_sol  =         0.00000000
  ---------------------------------------------------
  free energy    TOTEN  =     13459.42328172 eV

  energy without entropy =    13459.45303020  energy(sigma->0) =    13459.43815596


--------------------------------------------------------------------------------------------------------




--------------------------------------- Iteration      1(   2)  ---------------------------------------


     EDDAV:  cpu time  337.9581: real time  344.8516
       DOS:  cpu time    0.0051: real time    0.0051
    --------------------------------------------
      LOOP:  cpu time  337.9632: real time  344.8568

 eigenvalue-minimisations  : 29280
 total energy-change (2. order) :-0.1205105E+05  (-0.1120295E+05)
 number of electron    1024.0000020 magnetization     128.0001055
 augmentation part     1024.0000020 magnetization     128.0001055

 Free energy of the ion-electron system (eV)
  ---------------------------------------------------
  alpha Z        PSCENC =      2574.33730679
  Ewald energy   TEWEN  =    -67378.56006388
  -Hartree energ DENC   =    -36045.52844257
  -exchange      EXHF   =         0.00000000
  -V(xc)+E(xc)   XCENC  =      4397.16331374
  PAW double counting   =    108725.82191982  -112342.66432617
  entropy T*S    EENTRO =        -0.06975843
  eigenvalues    EBANDS =    -12831.41653565
  atomic energy  EATOM  =    114309.28505226
  Solvation  Ediel_sol  =         0.00000000
  ---------------------------------------------------
  free energy    TOTEN  =      1408.36846591 eV

  energy without entropy =     1408.43822433  energy(sigma->0) =     1408.40334512


--------------------------------------------------------------------------------------------------------




--------------------------------------- Iteration      1(   3)  ---------------------------------------


     EDDAV:  cpu time  372.3686: real time  379.0970
       DOS:  cpu time    0.0017: real time    0.0017
    --------------------------------------------
      LOOP:  cpu time  372.3703: real time  379.0987

 eigenvalue-minimisations  : 32928
 total energy-change (2. order) :-0.1936339E+04  (-0.1738763E+04)
 number of electron    1024.0000020 magnetization     128.0001055
 augmentation part     1024.0000020 magnetization     128.0001055

 Free energy of the ion-electron system (eV)
  ---------------------------------------------------
  alpha Z        PSCENC =      2574.33730679
  Ewald energy   TEWEN  =    -67378.56006388
  -Hartree energ DENC   =    -36045.52844257
  -exchange      EXHF   =         0.00000000
  -V(xc)+E(xc)   XCENC  =      4397.16331374
  PAW double counting   =    108725.82191982  -112342.66432617
  entropy T*S    EENTRO =        -0.00000000
  eigenvalues    EBANDS =    -14767.82579073
  atomic energy  EATOM  =    114309.28505226
  Solvation  Ediel_sol  =         0.00000000
  ---------------------------------------------------
  free energy    TOTEN  =      -527.97103074 eV

  energy without entropy =     -527.97103074  energy(sigma->0) =     -527.97103074


--------------------------------------------------------------------------------------------------------




--------------------------------------- Iteration      1(   4)  ---------------------------------------


     EDDAV:  cpu time  427.5773: real time  435.3940
       DOS:  cpu time    0.0017: real time    0.0017
    --------------------------------------------
      LOOP:  cpu time  427.5789: real time  435.3957

 eigenvalue-minimisations  : 39368
 total energy-change (2. order) :-0.2608600E+03  (-0.2580105E+03)
 number of electron    1024.0000020 magnetization     128.0001055
 augmentation part     1024.0000020 magnetization     128.0001055

 Free energy of the ion-electron system (eV)
  ---------------------------------------------------
  alpha Z        PSCENC =      2574.33730679
  Ewald energy   TEWEN  =    -67378.56006388
  -Hartree energ DENC   =    -36045.52844257
  -exchange      EXHF   =         0.00000000
  -V(xc)+E(xc)   XCENC  =      4397.16331374
  PAW double counting   =    108725.82191982  -112342.66432617
  entropy T*S    EENTRO =        -0.00000000
  eigenvalues    EBANDS =    -15028.68583088
  atomic energy  EATOM  =    114309.28505226
  Solvation  Ediel_sol  =         0.00000000
  ---------------------------------------------------
  free energy    TOTEN  =      -788.83107089 eV

  energy without entropy =     -788.83107089  energy(sigma->0) =     -788.83107089


--------------------------------------------------------------------------------------------------------




--------------------------------------- Iteration      1(   5)  ---------------------------------------


     EDDAV:  cpu time  532.4275: real time  542.6357
       DOS:  cpu time    0.0020: real time    0.0020
    CHARGE:  cpu time    8.4519: real time    8.6017
    MIXING:  cpu time    0.0188: real time    0.0298
    --------------------------------------------
      LOOP:  cpu time  540.9002: real time  551.2692

 eigenvalue-minimisations  : 51296
 total energy-change (2. order) :-0.3158379E+02  (-0.3133118E+02)
 number of electron    1024.0000020 magnetization     128.0000816
 augmentation part      329.1926169 magnetization      84.1924900

 Broyden mixing:
  rms(total) = 0.31603E+00    rms(broyden)= 0.31578E+00
  rms(prec ) = 0.31972E+00
  weight for this iteration     100.00

 Free energy of the ion-electron system (eV)
  ---------------------------------------------------
  alpha Z        PSCENC =      2574.33730679
  Ewald energy   TEWEN  =    -67378.56006388
  -Hartree energ DENC   =    -36045.52844257
  -exchange      EXHF   =         0.00000000
  -V(xc)+E(xc)   XCENC  =      4397.16331374
  PAW double counting   =    108725.82191982  -112342.66432617
  entropy T*S    EENTRO =        -0.00000000
  eigenvalues    EBANDS =    -15060.26962398
  atomic energy  EATOM  =    114309.28505226
  Solvation  Ediel_sol  =         0.00000000
  ---------------------------------------------------
  free energy    TOTEN  =      -820.41486399 eV

  energy without entropy =     -820.41486399  energy(sigma->0) =     -820.41486399


--------------------------------------------------------------------------------------------------------




--------------------------------------- Iteration      1(   6)  ---------------------------------------


    POTLOK:  cpu time    0.7202: real time    0.7311
    SETDIJ:  cpu time    1.6309: real time    1.6583
     EDDAV:  cpu time  438.5946: real time  447.2588
       DOS:  cpu time    0.0029: real time    0.0031
    CHARGE:  cpu time    8.2771: real time    8.5253
    MIXING:  cpu time    0.0315: real time    0.0315
    --------------------------------------------
      LOOP:  cpu time  449.2571: real time  458.2081

 eigenvalue-minimisations  : 40584
 total energy-change (2. order) :-0.1433059E+01  (-0.1483202E+01)
 number of electron    1024.0000020 magnetization     128.0000683
 augmentation part      327.4949788 magnetization      84.3235203

 Broyden mixing:
  rms(total) = 0.12648E+00    rms(broyden)= 0.12625E+00
  rms(prec ) = 0.12727E+00
  weight for this iteration     100.00

 eigenvalues of (default mixing * dielectric matrix)
  average eigenvalue GAMMA=   0.6863
  0.6863

 Free energy of the ion-electron system (eV)
  ---------------------------------------------------
  alpha Z        PSCENC =      2574.33730679
  Ewald energy   TEWEN  =    -67378.56006388
  -Hartree energ DENC   =    -36036.90293823
  -exchange      EXHF   =         0.00000000
  -V(xc)+E(xc)   XCENC  =      4395.88633674
  PAW double counting   =    108536.34428862  -112147.45864807
  entropy T*S    EENTRO =        -0.00000000
  eigenvalues    EBANDS =    -15074.77925706
  atomic energy  EATOM  =    114309.28505226
  Solvation  Ediel_sol  =         0.00000000
  ---------------------------------------------------
  free energy    TOTEN  =      -821.84792285 eV

  energy without entropy =     -821.84792285  energy(sigma->0) =     -821.84792285


--------------------------------------------------------------------------------------------------------




--------------------------------------- Iteration      1(   7)  ---------------------------------------


    POTLOK:  cpu time    0.6759: real time    0.7131
    SETDIJ:  cpu time    1.6690: real time    1.7183
     EDDAV:  cpu time  497.7409: real time  506.9528
       DOS:  cpu time    0.0020: real time    0.0041
    CHARGE:  cpu time    8.2368: real time    8.4474
    MIXING:  cpu time    0.0328: real time    0.0328
    --------------------------------------------
      LOOP:  cpu time  508.3574: real time  517.8685

 eigenvalue-minimisations  : 47256
 total energy-change (2. order) :-0.7810847E-01  (-0.7974558E-01)
 number of electron    1024.0000020 magnetization     128.0000624
 augmentation part      327.1720308 magnetization      84.2657963

 Broyden mixing:
  rms(total) = 0.97155E-01    rms(broyden)= 0.97055E-01
  rms(prec ) = 0.98588E-01
  weight for this iteration     100.00

 eigenvalues of (default mixing * dielectric matrix)
  average eigenvalue GAMMA=   0.5947
  0.5947  0.5947

 Free energy of the ion-electron system (eV)
  ---------------------------------------------------
  alpha Z        PSCENC =      2574.33730679
  Ewald energy   TEWEN  =    -67378.56006388
  -Hartree energ DENC   =    -36039.56281319
  -exchange      EXHF   =         0.00000000
  -V(xc)+E(xc)   XCENC  =      4396.22676056
  PAW double counting   =    108580.98923190  -112193.53104739
  entropy T*S    EENTRO =        -0.00000000
  eigenvalues    EBANDS =    -15071.11045836
  atomic energy  EATOM  =    114309.28505226
  Solvation  Ediel_sol  =         0.00000000
  ---------------------------------------------------
  free energy    TOTEN  =      -821.92603131 eV

  energy without entropy =     -821.92603131  energy(sigma->0) =     -821.92603131


--------------------------------------------------------------------------------------------------------




--------------------------------------- Iteration      1(   8)  ---------------------------------------


    POTLOK:  cpu time    0.7050: real time    0.7239
    SETDIJ:  cpu time    1.6464: real time    1.6615
     EDDAV:  cpu time  471.4265: real time  480.7591
       DOS:  cpu time    0.0031: real time    0.0036
    CHARGE:  cpu time    8.3425: real time    8.5306
    MIXING:  cpu time    0.0279: real time    0.0287
    --------------------------------------------
      LOOP:  cpu time  482.1513: real time  491.7074

 eigenvalue-minimisations  : 44536
 total energy-change (2. order) :-0.2271783E-03  (-0.3071713E-02)
 number of electron    1024.0000020 magnetization     128.0000602
 augmentation part      327.1116848 magnetization      84.2572405

 Broyden mixing:
  rms(total) = 0.85147E-01    rms(broyden)= 0.85138E-01
  rms(prec ) = 0.86539E-01
  weight for this iteration     100.00

 eigenvalues of (default mixing * dielectric matrix)
  average eigenvalue GAMMA=   0.5212
  0.5998  0.5998  0.3640

 Free energy of the ion-electron system (eV)
  ---------------------------------------------------
  alpha Z        PSCENC =      2574.33730679
  Ewald energy   TEWEN  =    -67378.56006388
  -Hartree energ DENC   =    -36040.44440645
  -exchange      EXHF   =         0.00000000
  -V(xc)+E(xc)   XCENC  =      4396.37304007
  PAW double counting   =    108606.56095608  -112219.84806210
  entropy T*S    EENTRO =        -0.00000000
  eigenvalues    EBANDS =    -15069.63008126
  atomic energy  EATOM  =    114309.28505226
  Solvation  Ediel_sol  =         0.00000000
  ---------------------------------------------------
  free energy    TOTEN  =      -821.92625849 eV

  energy without entropy =     -821.92625849  energy(sigma->0) =     -821.92625849


--------------------------------------------------------------------------------------------------------




--------------------------------------- Iteration      1(   9)  ---------------------------------------


    POTLOK:  cpu time    0.6682: real time    0.6880
    SETDIJ:  cpu time    1.6660: real time    1.6905
     EDDAV:  cpu time  499.9013: real time  509.4900
       DOS:  cpu time    0.0025: real time    0.0027
    CHARGE:  cpu time    8.4401: real time    8.5231
    MIXING:  cpu time    0.0261: real time    0.0261
    --------------------------------------------
      LOOP:  cpu time  510.7042: real time  520.4204

 eigenvalue-minimisations  : 47400
 total energy-change (2. order) : 0.9200445E-03  (-0.1857635E-03)
 number of electron    1024.0000020 magnetization     128.0000601
 augmentation part      327.1197346 magnetization      84.2540681

 Broyden mixing:
  rms(total) = 0.78951E-01    rms(broyden)= 0.78950E-01
  rms(prec ) = 0.80230E-01
  weight for this iteration     100.00

 eigenvalues of (default mixing * dielectric matrix)
  average eigenvalue GAMMA=   0.4032
  0.5912  0.5912  0.3427  0.0880

 Free energy of the ion-electron system (eV)
  ---------------------------------------------------
  alpha Z        PSCENC =      2574.33730679
  Ewald energy   TEWEN  =    -67378.56006388
  -Hartree energ DENC   =    -36040.68938692
  -exchange      EXHF   =         0.00000000
  -V(xc)+E(xc)   XCENC  =      4396.42926902
  PAW double counting   =    108613.39180362  -112226.92783789
  entropy T*S    EENTRO =        -0.00000000
  eigenvalues    EBANDS =    -15069.19148144
  atomic energy  EATOM  =    114309.28505226
  Solvation  Ediel_sol  =         0.00000000
  ---------------------------------------------------
  free energy    TOTEN  =      -821.92533845 eV

  energy without entropy =     -821.92533845  energy(sigma->0) =     -821.92533845


--------------------------------------------------------------------------------------------------------




--------------------------------------- Iteration      1(  10)  ---------------------------------------


    POTLOK:  cpu time    0.6605: real time    0.6718
    SETDIJ:  cpu time    1.6731: real time    1.6851
     EDDAV:  cpu time  484.6284: real time  493.7200
       DOS:  cpu time    0.0023: real time    0.0023
    CHARGE:  cpu time    8.4932: real time    8.6586
    MIXING:  cpu time    0.0373: real time    0.0388
    --------------------------------------------
      LOOP:  cpu time  495.4948: real time  504.7767

 eigenvalue-minimisations  : 45832
 total energy-change (2. order) : 0.4360981E-04  (-0.1453480E-04)
 number of electron    1024.0000020 magnetization     128.0000523
 augmentation part      327.1242888 magnetization      84.2534039

 Broyden mixing:
  rms(total) = 0.78511E-01    rms(broyden)= 0.78511E-01
  rms(prec ) = 0.79769E-01
  weight for this iteration     100.00

 eigenvalues of (default mixing * dielectric matrix)
  average eigenvalue GAMMA=   0.5448
  0.8357  0.8357  0.4744  0.4744  0.1035

 Free energy of the ion-electron system (eV)
  ---------------------------------------------------
  alpha Z        PSCENC =      2574.33730679
  Ewald energy   TEWEN  =    -67378.56006388
  -Hartree energ DENC   =    -36040.70087494
  -exchange      EXHF   =         0.00000000
  -V(xc)+E(xc)   XCENC  =      4396.43138786
  PAW double counting   =    108613.59762564  -112227.14143973
  entropy T*S    EENTRO =        -0.00000000
  eigenvalues    EBANDS =    -15069.17428883
  atomic energy  EATOM  =    114309.28505226
  Solvation  Ediel_sol  =         0.00000000
  ---------------------------------------------------
  free energy    TOTEN  =      -821.92529484 eV

  energy without entropy =     -821.92529484  energy(sigma->0) =     -821.92529484


--------------------------------------------------------------------------------------------------------




--------------------------------------- Iteration      1(  11)  ---------------------------------------


    POTLOK:  cpu time    0.6480: real time    0.6611
    SETDIJ:  cpu time    1.6695: real time    1.6839
     EDDAV:  cpu time  476.2718: real time  485.6934
       DOS:  cpu time    0.0026: real time    0.0026
    CHARGE:  cpu time    8.4688: real time    8.5744
    MIXING:  cpu time    0.0317: real time    0.0335
    --------------------------------------------
      LOOP:  cpu time  487.0924: real time  496.6488

 eigenvalue-minimisations  : 44832
 total energy-change (2. order) : 0.2204587E-02  (-0.3403230E-04)
 number of electron    1024.0000020 magnetization     128.0000453
 augmentation part      327.1375889 magnetization      84.2515126

 Broyden mixing:
  rms(total) = 0.61808E-01    rms(broyden)= 0.61808E-01
  rms(prec ) = 0.62767E-01
  weight for this iteration     100.00

 eigenvalues of (default mixing * dielectric matrix)
  average eigenvalue GAMMA=   0.5890
  0.9822  0.9822  0.5216  0.5216  0.4233  0.1029

 Free energy of the ion-electron system (eV)
  ---------------------------------------------------
  alpha Z        PSCENC =      2574.33730679
  Ewald energy   TEWEN  =    -67378.56006388
  -Hartree energ DENC   =    -36041.60330154
  -exchange      EXHF   =         0.00000000
  -V(xc)+E(xc)   XCENC  =      4396.59604359
  PAW double counting   =    108637.11224508  -112251.49985563
  entropy T*S    EENTRO =        -0.00000000
  eigenvalues    EBANDS =    -15067.59051693
  atomic energy  EATOM  =    114309.28505226
  Solvation  Ediel_sol  =         0.00000000
  ---------------------------------------------------
  free energy    TOTEN  =      -821.92309025 eV

  energy without entropy =     -821.92309025  energy(sigma->0) =     -821.92309025


--------------------------------------------------------------------------------------------------------




--------------------------------------- Iteration      1(  12)  ---------------------------------------


    POTLOK:  cpu time    0.6678: real time    0.6841
    SETDIJ:  cpu time    1.6503: real time    1.6725
     EDDAV:  cpu time  467.3394: real time  475.6459
       DOS:  cpu time    0.0019: real time    0.0019
    CHARGE:  cpu time    8.3248: real time    8.5359
    MIXING:  cpu time    0.0362: real time    0.0379
    --------------------------------------------
      LOOP:  cpu time  478.0204: real time  486.5783

 eigenvalue-minimisations  : 43368
 total energy-change (2. order) : 0.1194304E-02  (-0.6797839E-04)
 number of electron    1024.0000020 magnetization     128.0000366
 augmentation part      327.1579624 magnetization      84.2520040

 Broyden mixing:
  rms(total) = 0.48031E-01    rms(broyden)= 0.48031E-01
  rms(prec ) = 0.48739E-01
  weight for this iteration     100.00

 eigenvalues of (default mixing * dielectric matrix)
  average eigenvalue GAMMA=   0.6788
  1.2422  1.2422  0.6100  0.6100  0.4706  0.4706  0.1058

 Free energy of the ion-electron system (eV)
  ---------------------------------------------------
  alpha Z        PSCENC =      2574.33730679
  Ewald energy   TEWEN  =    -67378.56006388
  -Hartree energ DENC   =    -36042.39737441
  -exchange      EXHF   =         0.00000000
  -V(xc)+E(xc)   XCENC  =      4396.72400383
  PAW double counting   =    108656.01033696  -112271.03608982
  entropy T*S    EENTRO =        -0.00000000
  eigenvalues    EBANDS =    -15066.28506767
  atomic energy  EATOM  =    114309.28505226
  Solvation  Ediel_sol  =         0.00000000
  ---------------------------------------------------
  free energy    TOTEN  =      -821.92189595 eV

  energy without entropy =     -821.92189595  energy(sigma->0) =     -821.92189595


--------------------------------------------------------------------------------------------------------




--------------------------------------- Iteration      1(  13)  ---------------------------------------


    POTLOK:  cpu time    0.6742: real time    0.6780
    SETDIJ:  cpu time    1.6684: real time    1.6969
     EDDAV:  cpu time  493.9686: real time  502.9892
       DOS:  cpu time    0.0018: real time    0.0018
    CHARGE:  cpu time    8.2328: real time    8.5315
    MIXING:  cpu time    0.0391: real time    0.0408
    --------------------------------------------
      LOOP:  cpu time  504.5849: real time  513.9383

 eigenvalue-minimisations  : 46552
 total energy-change (2. order) : 0.8793613E-03  (-0.2301400E-04)
 number of electron    1024.0000020 magnetization     128.0000311
 augmentation part      327.1671490 magnetization      84.2529567

 Broyden mixing:
  rms(total) = 0.33879E-01    rms(broyden)= 0.33878E-01
  rms(prec ) = 0.34360E-01
  weight for this iteration     100.00

 eigenvalues of (default mixing * dielectric matrix)
  average eigenvalue GAMMA=   0.7243
  1.4518  1.4518  0.6907  0.6907  0.4853  0.4853  0.4327  0.1057

 Free energy of the ion-electron system (eV)
  ---------------------------------------------------
  alpha Z        PSCENC =      2574.33730679
  Ewald energy   TEWEN  =    -67378.56006388
  -Hartree energ DENC   =    -36043.33457751
  -exchange      EXHF   =         0.00000000
  -V(xc)+E(xc)   XCENC  =      4396.86298022
  PAW double counting   =    108676.55167440  -112292.19474956
  entropy T*S    EENTRO =        -0.00000000
  eigenvalues    EBANDS =    -15064.86863930
  atomic energy  EATOM  =    114309.28505226
  Solvation  Ediel_sol  =         0.00000000
  ---------------------------------------------------
  free energy    TOTEN  =      -821.92101659 eV

  energy without entropy =     -821.92101659  energy(sigma->0) =     -821.92101659


--------------------------------------------------------------------------------------------------------




--------------------------------------- Iteration      1(  14)  ---------------------------------------


    POTLOK:  cpu time    0.6560: real time    0.6815
    SETDIJ:  cpu time    1.6528: real time    1.6700
     EDDAV:  cpu time  454.4331: real time  462.6520
       DOS:  cpu time    0.0039: real time    0.0039
    CHARGE:  cpu time    8.1643: real time    8.5682
    MIXING:  cpu time    0.0365: real time    0.0365
    --------------------------------------------
      LOOP:  cpu time  464.9466: real time  473.6121

 eigenvalue-minimisations  : 42160
 total energy-change (2. order) : 0.2772870E-03  (-0.2355963E-04)
 number of electron    1024.0000020 magnetization     128.0000225
 augmentation part      327.1757742 magnetization      84.2512099

 Broyden mixing:
  rms(total) = 0.26593E-01    rms(broyden)= 0.26593E-01
  rms(prec ) = 0.26950E-01
  weight for this iteration     100.00

 eigenvalues of (default mixing * dielectric matrix)
  average eigenvalue GAMMA=   0.8151
  1.7519  1.7519  0.8597  0.8597  0.5516  0.5516  0.4521  0.4521  0.1057

 Free energy of the ion-electron system (eV)
  ---------------------------------------------------
  alpha Z        PSCENC =      2574.33730679
  Ewald energy   TEWEN  =    -67378.56006388
  -Hartree energ DENC   =    -36043.83930062
  -exchange      EXHF   =         0.00000000
  -V(xc)+E(xc)   XCENC  =      4396.93249128
  PAW double counting   =    108686.98875390  -112302.91306172
  entropy T*S    EENTRO =        -0.00000000
  eigenvalues    EBANDS =    -15064.15191730
  atomic energy  EATOM  =    114309.28505226
  Solvation  Ediel_sol  =         0.00000000
  ---------------------------------------------------
  free energy    TOTEN  =      -821.92073930 eV

  energy without entropy =     -821.92073930  energy(sigma->0) =     -821.92073930


--------------------------------------------------------------------------------------------------------




--------------------------------------- Iteration      1(  15)  ---------------------------------------


    POTLOK:  cpu time    0.7115: real time    0.7231
    SETDIJ:  cpu time    1.6447: real time    1.6680
     EDDAV:  cpu time  441.3884: real time  449.0562
       DOS:  cpu time    0.0018: real time    0.0018
    CHARGE:  cpu time    8.4676: real time    8.5532
    MIXING:  cpu time    0.0377: real time    0.0377
    --------------------------------------------
      LOOP:  cpu time  452.2518: real time  460.0400

 eigenvalue-minimisations  : 40664
 total energy-change (2. order) : 0.3034837E-03  (-0.1276026E-04)
 number of electron    1024.0000020 magnetization     128.0000124
 augmentation part      327.1825435 magnetization      84.2515143

 Broyden mixing:
  rms(total) = 0.15687E-01    rms(broyden)= 0.15687E-01
  rms(prec ) = 0.15882E-01
  weight for this iteration     100.00

 eigenvalues of (default mixing * dielectric matrix)
  average eigenvalue GAMMA=   0.9491
  2.3533  2.3533  0.9932  0.9932  0.6345  0.6345  0.4986  0.4986  0.4264  0.1057

 Free energy of the ion-electron system (eV)
  ---------------------------------------------------
  alpha Z        PSCENC =      2574.33730679
  Ewald energy   TEWEN  =    -67378.56006388
  -Hartree energ DENC   =    -36044.56094373
  -exchange      EXHF   =         0.00000000
  -V(xc)+E(xc)   XCENC  =      4397.03570370
  PAW double counting   =    108702.20447553  -112318.53434070
  entropy T*S    EENTRO =        -0.00000000
  eigenvalues    EBANDS =    -15063.12762579
  atomic energy  EATOM  =    114309.28505226
  Solvation  Ediel_sol  =         0.00000000
  ---------------------------------------------------
  free energy    TOTEN  =      -821.92043582 eV

  energy without entropy =     -821.92043582  energy(sigma->0) =     -821.92043582


--------------------------------------------------------------------------------------------------------




--------------------------------------- Iteration      1(  16)  ---------------------------------------


    POTLOK:  cpu time    0.6499: real time    0.6636
    SETDIJ:  cpu time    1.6651: real time    1.6771
     EDDAV:  cpu time  449.0022: real time  456.7688
       DOS:  cpu time    0.0021: real time    0.0021
    CHARGE:  cpu time    8.3414: real time    8.5951
    MIXING:  cpu time    0.0295: real time    0.0483
    --------------------------------------------
      LOOP:  cpu time  459.6903: real time  467.7551

 eigenvalue-minimisations  : 41696
 total energy-change (2. order) : 0.1082625E-03  (-0.1938432E-04)
 number of electron    1024.0000020 magnetization     128.0000080
 augmentation part      327.1899383 magnetization      84.2509795

 Broyden mixing:
  rms(total) = 0.70503E-02    rms(broyden)= 0.70495E-02
  rms(prec ) = 0.71094E-02
  weight for this iteration     100.00

 eigenvalues of (default mixing * dielectric matrix)
  average eigenvalue GAMMA=   0.9538
  2.5141  2.5141  1.0505  1.0505  0.6780  0.6780  0.1057  0.5132  0.5132  0.4374
  0.4374

 Free energy of the ion-electron system (eV)
  ---------------------------------------------------
  alpha Z        PSCENC =      2574.33730679
  Ewald energy   TEWEN  =    -67378.56006388
  -Hartree energ DENC   =    -36045.23026085
  -exchange      EXHF   =         0.00000000
  -V(xc)+E(xc)   XCENC  =      4397.11775172
  PAW double counting   =    108714.47556043  -112331.04456883
  entropy T*S    EENTRO =        -0.00000000
  eigenvalues    EBANDS =    -15062.30110520
  atomic energy  EATOM  =    114309.28505226
  Solvation  Ediel_sol  =         0.00000000
  ---------------------------------------------------
  free energy    TOTEN  =      -821.92032755 eV

  energy without entropy =     -821.92032755  energy(sigma->0) =     -821.92032755


--------------------------------------------------------------------------------------------------------




--------------------------------------- Iteration      1(  17)  ---------------------------------------


    POTLOK:  cpu time    0.6670: real time    0.6741
    SETDIJ:  cpu time    1.6517: real time    1.6721
     EDDAV:  cpu time  471.0272: real time  480.1429
       DOS:  cpu time    0.0037: real time    0.0041
    CHARGE:  cpu time    8.3612: real time    8.5700
    MIXING:  cpu time    0.0351: real time    0.0360
    --------------------------------------------
      LOOP:  cpu time  481.7459: real time  491.0992

 eigenvalue-minimisations  : 44408
 total energy-change (2. order) : 0.2296294E-04  (-0.8098917E-05)
 number of electron    1024.0000020 magnetization     128.0000067
 augmentation part      327.1944195 magnetization      84.2512193

 Broyden mixing:
  rms(total) = 0.30199E-02    rms(broyden)= 0.30185E-02
  rms(prec ) = 0.30251E-02
  weight for this iteration     100.00

 eigenvalues of (default mixing * dielectric matrix)
  average eigenvalue GAMMA=   0.9500
  2.6179  2.6179  1.1060  1.1060  0.7295  0.7295  0.1057  0.5333  0.5333  0.4718
  0.4718  0.3772

 Free energy of the ion-electron system (eV)
  ---------------------------------------------------
  alpha Z        PSCENC =      2574.33730679
  Ewald energy   TEWEN  =    -67378.56006388
  -Hartree energ DENC   =    -36045.50856229
  -exchange      EXHF   =         0.00000000
  -V(xc)+E(xc)   XCENC  =      4397.15708556
  PAW double counting   =    108720.66725152  -112337.38068953
  entropy T*S    EENTRO =        -0.00000000
  eigenvalues    EBANDS =    -15061.91768501
  atomic energy  EATOM  =    114309.28505226
  Solvation  Ediel_sol  =         0.00000000
  ---------------------------------------------------
  free energy    TOTEN  =      -821.92030459 eV

  energy without entropy =     -821.92030459  energy(sigma->0) =     -821.92030459


--------------------------------------------------------------------------------------------------------




--------------------------------------- Iteration      1(  18)  ---------------------------------------


    POTLOK:  cpu time    0.6624: real time    0.6728
    SETDIJ:  cpu time    1.6612: real time    1.6773
     EDDAV:  cpu time  403.3752: real time  410.7911
       DOS:  cpu time    0.0019: real time    0.0021
    CHARGE:  cpu time    8.5956: real time    8.6713
    MIXING:  cpu time    0.0434: real time    0.0437
    --------------------------------------------
      LOOP:  cpu time  414.3397: real time  421.8584

 eigenvalue-minimisations  : 36424
 total energy-change (2. order) : 0.8519564E-06  (-0.2254844E-05)
 number of electron    1024.0000020 magnetization     128.0000060
 augmentation part      327.1973190 magnetization      84.2511385

 Broyden mixing:
  rms(total) = 0.24695E-02    rms(broyden)= 0.24682E-02
  rms(prec ) = 0.24751E-02
  weight for this iteration     100.00

 eigenvalues of (default mixing * dielectric matrix)
  average eigenvalue GAMMA=   0.9312
  2.6912  2.6912  1.1123  1.1123  0.7293  0.7293  0.1057  0.5703  0.5703  0.4861
  0.4861  0.4453  0.3767

 Free energy of the ion-electron system (eV)
  ---------------------------------------------------
  alpha Z        PSCENC =      2574.33730679
  Ewald energy   TEWEN  =    -67378.56006388
  -Hartree energ DENC   =    -36045.56084176
  -exchange      EXHF   =         0.00000000
  -V(xc)+E(xc)   XCENC  =      4397.16380225
  PAW double counting   =    108721.80269183  -112338.53724745
  entropy T*S    EENTRO =        -0.00000000
  eigenvalues    EBANDS =    -15061.85100378
  atomic energy  EATOM  =    114309.28505226
  Solvation  Ediel_sol  =         0.00000000
  ---------------------------------------------------
  free energy    TOTEN  =      -821.92030374 eV

  energy without entropy =     -821.92030374  energy(sigma->0) =     -821.92030374


--------------------------------------------------------------------------------------------------------




--------------------------------------- Iteration      1(  19)  ---------------------------------------


    POTLOK:  cpu time    0.6678: real time    0.6757
    SETDIJ:  cpu time    1.6895: real time    1.6940
     EDDAV:  cpu time  272.9044: real time  278.5486
       DOS:  cpu time    0.0018: real time    0.0020
    --------------------------------------------
      LOOP:  cpu time  275.2635: real time  280.9203

 eigenvalue-minimisations  : 21624
 total energy-change (2. order) : 0.4544418E-06  (-0.7050158E-07)
 number of electron    1024.0000020 magnetization     128.0000060
 augmentation part      327.1973190 magnetization      84.2511385

 Free energy of the ion-electron system (eV)
  ---------------------------------------------------
  alpha Z        PSCENC =      2574.33730679
  Ewald energy   TEWEN  =    -67378.56006388
  -Hartree energ DENC   =    -36045.57806599
  -exchange      EXHF   =         0.00000000
  -V(xc)+E(xc)   XCENC  =      4397.16503550
  PAW double counting   =    108722.12023181  -112338.85655931
  entropy T*S    EENTRO =        -0.00000000
  eigenvalues    EBANDS =    -15061.83324046
  atomic energy  EATOM  =    114309.28505226
  Solvation  Ediel_sol  =         0.00000000
  ---------------------------------------------------
  free energy    TOTEN  =      -821.92030328 eV

  energy without entropy =     -821.92030328  energy(sigma->0) =     -821.92030328


--------------------------------------------------------------------------------------------------------




 average (electrostatic) potential at core
  the test charge radii are     0.7079  0.9500  0.9698  0.7215
  (the norm of the test charge is              1.0000)
       1 -59.3023       2 -59.3063       3 -59.3054       4 -59.3063       5 -59.3047
       6 -59.3061       7 -59.3057       8 -59.3063       9 -59.3049      10 -59.3064
      11 -59.3050      12 -59.3068      13 -59.3053      14 -59.3062      15 -59.3055
      16 -59.3066      17 -59.3066      18 -59.3052      19 -59.3063      20 -59.3057
      21 -59.3059      22 -59.3055      23 -59.3071      24 -59.3054      25 -59.3065
[...]
   -.811E-03 0.960E-02 0.778E-02   0.844E-03 -.966E-02 -.806E-02   -.949E-04 0.736E-04 0.413E-03   0.405E-04 0.286E-05 -.187E-04
   -.836E-03 -.338E-03 -.190E-02   0.969E-03 0.515E-03 0.180E-02   -.797E-04 -.292E-03 0.162E-03   -.725E-04 0.220E-04 -.734E-05
   -.302E-02 -.812E-02 0.562E-02   0.330E-02 0.830E-02 -.573E-02   -.389E-03 -.267E-03 0.125E-03   0.958E-05 -.160E-04 0.487E-04
   -.452E-01 -.835E-02 0.193E-01   0.470E-01 0.873E-02 -.206E-01   -.250E-02 -.419E-03 0.199E-02   0.219E-04 -.153E-03 -.639E-04
   -.222E-01 0.353E-01 -.188E-01   0.234E-01 -.376E-01 0.194E-01   -.167E-02 0.349E-02 -.126E-02   -.267E-04 0.355E-04 0.137E-04
   -.640E-03 0.882E-04 0.231E-02   0.148E-02 -.731E-03 -.215E-02   -.111E-02 0.980E-03 -.279E-03   -.476E-04 -.192E-04 -.128E-04
   -.115E-01 -.197E-01 -.838E-02   0.128E-01 0.224E-01 0.828E-02   -.180E-02 -.394E-02 0.572E-03   0.562E-05 -.314E-04 -.103E-03
   -.127E-01 -.143E-01 -.641E-02   0.140E-01 0.166E-01 0.621E-02   -.173E-02 -.337E-02 0.511E-03   -.835E-04 -.207E-04 0.312E-04
   0.424E-02 -.425E-03 0.219E-02   -.350E-02 0.247E-04 -.208E-02   -.965E-03 0.718E-03 -.170E-03   -.405E-04 -.100E-03 -.264E-04
   -.221E-01 0.228E-01 -.121E-01   0.231E-01 -.243E-01 0.127E-01   -.137E-02 0.237E-02 -.866E-03   0.178E-04 -.240E-04 -.486E-04
   -.603E-01 -.157E-01 0.327E-01   0.626E-01 0.161E-01 -.347E-01   -.315E-02 -.776E-03 0.305E-02   0.620E-05 0.139E-04 0.131E-04
   -.520E-02 -.660E-02 0.457E-02   0.556E-02 0.684E-02 -.463E-02   -.507E-03 -.282E-03 0.114E-03   0.447E-05 -.689E-04 0.163E-04
   0.206E-02 -.782E-03 -.181E-02   -.203E-02 0.986E-03 0.174E-02   0.660E-04 -.336E-03 0.164E-03   -.765E-04 0.281E-04 -.268E-04
   -.415E-02 0.768E-02 0.583E-02   0.468E-02 -.776E-02 -.662E-02   -.715E-03 0.520E-04 0.106E-02   -.176E-04 -.282E-05 0.538E-04
   -.645E-02 -.803E-03 -.115E-01   0.817E-02 0.387E-03 0.142E-01   -.218E-02 0.796E-03 -.401E-02   -.103E-03 0.561E-04 0.397E-04
   0.232E-01 0.776E-02 -.159E-01   -.254E-01 -.814E-02 0.166E-01   0.307E-02 0.628E-03 -.889E-03   -.763E-04 -.864E-04 0.459E-06
   -.117E-01 0.137E-02 0.260E-03   0.125E-01 -.159E-02 -.182E-03   -.122E-02 0.127E-03 -.743E-04   0.511E-04 0.136E-03 -.226E-04
   0.133E-01 -.863E-02 0.473E-02   -.144E-01 0.905E-02 -.493E-02   0.153E-02 -.608E-03 0.266E-03   -.605E-05 -.559E-05 -.371E-04
   -.925E-02 -.146E-02 0.554E-03   0.996E-02 0.157E-02 -.489E-03   -.105E-02 -.118E-03 -.633E-04   0.578E-04 -.219E-04 -.279E-04
   0.166E+00 -.151E+00 0.318E+00   -.182E+00 0.172E+00 -.354E+00   0.215E-01 -.149E-01 0.350E-01   -.834E-04 0.211E-03 -.373E-03
   -.172E-01 0.220E-02 -.338E-03   0.184E-01 -.243E-02 0.238E-03   -.146E-02 0.391E-03 0.197E-03   -.621E-04 -.119E-04 -.714E-05
   0.271E-01 -.331E-01 -.114E-01   -.298E-01 0.353E-01 0.115E-01   0.368E-02 -.330E-02 -.678E-03   0.191E-04 -.125E-03 0.556E-04
   -.122E-01 -.220E-02 -.541E-03   0.131E-01 0.235E-02 0.540E-03   -.128E-02 -.325E-03 0.173E-04   -.178E-04 0.837E-04 -.216E-04
   0.217E-01 -.413E-01 -.142E-01   -.240E-01 0.431E-01 0.146E-01   0.312E-02 -.280E-02 -.957E-03   0.119E-04 0.902E-05 0.438E-04
   -.116E-01 -.120E-02 -.115E-03   0.125E-01 0.144E-02 0.117E-04   -.126E-02 -.231E-03 -.300E-04   0.932E-04 -.942E-04 0.103E-03
   0.271E+00 -.386E-02 0.172E+00   -.300E+00 0.968E-02 -.194E+00   0.342E-01 -.187E-02 0.217E-01   -.161E-03 0.622E-04 0.353E-05
   -.181E-01 0.121E-02 0.769E-03   0.192E-01 -.135E-02 -.860E-03   -.149E-02 0.244E-03 0.279E-03   0.164E-05 -.107E-04 -.884E-04
   0.121E-01 -.102E-01 0.626E-02   -.132E-01 0.106E-01 -.650E-02   0.157E-02 -.732E-03 0.418E-03   -.408E-04 0.847E-04 -.105E-03
   -.886E-02 -.918E-03 0.959E-04   0.962E-02 0.111E-02 -.118E-04   -.105E-02 -.183E-03 -.611E-04   0.104E-04 -.761E-04 -.577E-04
   0.250E-01 0.105E-01 -.798E-02   -.276E-01 -.112E-01 0.889E-02   0.350E-02 0.101E-02 -.885E-03   0.288E-04 0.933E-04 -.127E-03
   -.120E-01 0.977E-03 -.598E-03   0.129E-01 -.108E-02 0.731E-03   -.130E-02 0.849E-04 -.216E-03   0.736E-05 0.284E-04 0.179E-04
 -----------------------------------------------------------------------------------------------
   -.248E-01 0.685E-01 -.690E-01   -.283E-12 -.712E-13 -.223E-12   0.255E-01 -.693E-01 0.696E-01   -.558E-03 0.827E-03 -.683E-03
 
 
 POSITION                                       TOTAL-FORCE (eV/Angst)
 -----------------------------------------------------------------------------------
      1.92810      2.80256      5.27212         0.004113      0.002678     -0.002737
      9.64051      2.80256      5.27212         0.000238     -0.000118     -0.000107
      1.92810      8.40768      5.27212        -0.000350     -0.000186      0.000069
      9.64051      8.40768      5.27212         0.000199      0.000092     -0.000145
      1.92810      2.80256     10.91064        -0.000220     -0.000113      0.000371
      9.64051      2.80256     10.91064         0.000077     -0.000025     -0.000116
      1.92810      8.40768     10.91064        -0.000078      0.000104     -0.000170
      9.64051      8.40768     10.91064         0.000084      0.000016     -0.000083
      1.92810      0.00000      3.18565        -0.000077      0.000778      0.000027
      9.64051      0.00000      3.18565         0.000126      0.000005      0.000116
      1.92810      5.60512      3.18565         0.000520     -0.002279      0.001362
      9.64051      5.60512      3.18565         0.000291      0.000031      0.000019
      1.92810      0.00000      8.82416        -0.000051      0.000029      0.000132
      9.64051      0.00000      8.82416         0.000067      0.000031      0.000123
      1.92810      5.60512      8.82416        -0.000131     -0.000032     -0.000124
      9.64051      5.60512      8.82416         0.000222     -0.000033      0.000184
      5.78431      2.80256      0.36639        -0.000072      0.000076     -0.000205
     13.49672      2.80256      0.36639         0.000241     -0.000043      0.000174
      5.78431      8.40768      0.36639        -0.000078      0.000021      0.000055
     13.49672      8.40768      0.36639         0.000067      0.000016      0.000116
      5.78431      2.80256      6.00490        -0.000907     -0.001932      0.001201
     13.49672      2.80256      6.00490         0.000214     -0.000008      0.000058
      5.78431      8.40768      6.00490        -0.000100      0.001108      0.000165
     13.49672      8.40768      6.00490         0.000156     -0.000009      0.000098
      5.78431      0.00000      2.45287        -0.000273     -0.000303     -0.000038
     13.49672      0.00000      2.45287         0.000222      0.000092     -0.000113
      5.78431      5.60512      2.45287         0.002387      0.002235     -0.004102
     13.49672      5.60512      2.45287         0.000177     -0.000069     -0.000075
      5.78431      0.00000      8.09138        -0.000109      0.000101     -0.000224
     13.49672      0.00000      8.09138         0.000095      0.000025     -0.000114
      5.78431      5.60512      8.09138        -0.000382     -0.000239      0.001080
     13.49672      5.60512      8.09138         0.000135     -0.000008     -0.000130
      4.16108      4.20972      4.22889        -0.014199     -0.023738      0.008079
     11.86540      4.20384      4.22889         0.000237     -0.000101     -0.000086
      4.15299      9.80896      4.22889        -0.000284      0.000261     -0.000041
     11.86540      9.80896      4.22889         0.000090      0.000047     -0.000003
      4.15299      4.20384      9.86740        -0.000289     -0.000145     -0.000045
     11.86540      4.20384      9.86740         0.000096     -0.000043      0.000001
      4.15299      9.80896      9.86740        -0.000433      0.000120      0.000035
     11.86540      9.80896      9.86740         0.000107      0.000051      0.000037
      3.55942      1.40128      1.40963        -0.000864      0.000314      0.000450
     11.27183      1.40128      1.40963         0.000317     -0.000002      0.000002
      3.55942      7.00640      1.40963        -0.000118      0.000296     -0.000412
     11.27183      7.00640      1.40963         0.000259      0.000006     -0.000009
      3.55942      1.40128      7.04814         0.000031      0.000498     -0.000550
     11.27183      1.40128      7.04814         0.000255     -0.000006      0.000003
      3.55942      7.00640      7.04814        -0.001026      0.000080      0.000307
     11.27183      7.00640      7.04814         0.000355      0.000052      0.000054
      0.29678      4.20384      1.40963         0.000372     -0.000680      0.000423
      8.00920      4.20384      1.40963        -0.000001     -0.000176     -0.000166
      0.29678      9.80896      1.40963        -0.000100      0.000208      0.000005
      8.00920      9.80896      1.40963         0.000009      0.000053     -0.000081
      0.29678      4.20384      7.04814         0.000125     -0.000003     -0.000155
      8.00920      4.20384      7.04814         0.000494     -0.000511      0.000417
      0.29678      9.80896      7.04814         0.000008      0.000041     -0.000110
      8.00920      9.80896      7.04814        -0.000105      0.000196      0.000021
      7.41563      1.40128      4.22889         0.000148     -0.000225      0.000120
     15.12804      1.40128      4.22889         0.000541      0.000266     -0.000294
      7.41563      7.00640      4.22889         0.000744      0.000587     -0.000482
     15.12804      7.00640      4.22889         0.000251     -0.000135      0.000112
      7.41563      1.40128      9.86740         0.000072      0.000027     -0.000022
     15.12804      1.40128      9.86740         0.000195      0.000107      0.000104
      7.41563      7.00640      9.86740         0.000121      0.000097      0.000128
     15.12804      7.00640      9.86740         0.000099     -0.000021     -0.000044
      7.49749      4.20384      4.22889         0.002338     -0.000961     -0.000662
     15.20990      4.20384      4.22889         0.001067     -0.000526     -0.000344
      7.49749      9.80896      4.22889        -0.000054      0.000423      0.000063
     15.20990      9.80896      4.22889         0.000091      0.000295      0.000021
      7.49749      4.20384      9.86740        -0.000051     -0.000509      0.000244
     15.20990      4.20384      9.86740         0.000108     -0.000382      0.000148
      7.49749      9.80896      9.86740         0.000147      0.000173      0.000023
     15.20990      9.80896      9.86740         0.000126      0.000148      0.000001
      0.21492      1.40128      1.40963         0.001492      0.001241      0.001001
      7.92733      1.40128      1.40963         0.000406      0.000017     -0.000249
      0.21492      7.00640      1.40963        -0.000089     -0.000250      0.000182
      7.92733      7.00640      1.40963         0.000159      0.000359     -0.000430
      0.21492      1.40128      7.04814         0.000184      0.000217     -0.000263
      7.92733      1.40128      7.04814        -0.000075     -0.000355      0.000304
      0.21492      7.00640      7.04814         0.000736     -0.000299     -0.000476
      7.92733      7.00640      7.04814         0.001616      0.001061      0.000893
      3.64128      4.20384      1.40963        -0.002359     -0.002803      0.000765
     11.35369      4.20384      1.40963         0.000408     -0.000112      0.000037
      3.64128      9.80896      1.40963        -0.000457      0.000483      0.000122
     11.35369      9.80896      1.40963         0.000316      0.000091     -0.000031
      3.64128      4.20384      7.04814        -0.002036     -0.003026     -0.003065
     11.35369      4.20384      7.04814         0.000436     -0.000173      0.000086
      3.64128      9.80896      7.04814        -0.000496      0.000534      0.000201
     11.35369      9.80896      7.04814         0.000329      0.000096     -0.000015
      4.07113      1.40128      4.22889        -0.002331      0.008247      0.000901
     11.78354      1.40128      4.22889         0.000407      0.000047     -0.000073
      4.07113      7.00640      4.22889        -0.003010      0.007088     -0.000132
     11.78354      7.00640      4.22889         0.000442      0.000046     -0.000086
      4.07113      1.40128      9.86740        -0.000493      0.000059     -0.000013
     11.78354      1.40128      9.86740         0.000317     -0.000009      0.000040
      4.07113      7.00640      9.86740        -0.000477      0.000005      0.000031
     11.78354      7.00640      9.86740         0.000324      0.000009      0.000047
      1.92810      0.00000      5.65047        -0.000026     -0.000694      0.000303
      9.64051      0.00000      5.65047        -0.000258     -0.000012     -0.000004
      1.92810      5.60512      5.65047        -0.000068      0.002083      0.000959
      9.64051      5.60512      5.65047        -0.000939      0.000006     -0.000020
      1.92810      0.00000      0.01196         0.000284     -0.000512     -0.000375
      9.64051      0.00000      0.01196        -0.000221     -0.000015      0.000035
      1.92810      5.60512      0.01196         0.000524      0.000352      0.000131
      9.64051      5.60512      0.01196        -0.000335      0.000038      0.000032
      1.92810      2.80256      2.80730        -0.002225     -0.001583     -0.002990
      9.64051      2.80256      2.80730        -0.000426      0.000151      0.000134
      1.92810      8.40768      2.80730         0.000569     -0.000372     -0.000024
      9.64051      8.40768      2.80730        -0.000335     -0.000114      0.000056
      1.92810      2.80256      8.44581        -0.000040      0.000000      0.000440
      9.64051      2.80256      8.44581        -0.000243      0.000114     -0.000111
      1.92810      8.40768      8.44581         0.000300      0.000087      0.000162
      9.64051      8.40768      8.44581        -0.000368     -0.000176     -0.000144
      5.78431      0.00000     11.26507         0.000285      0.000030      0.000159
     13.49672      0.00000     11.26507        -0.000365     -0.000138     -0.000125
      5.78431      5.60512     11.26507         0.000153      0.000047      0.000329
     13.49672      5.60512     11.26507        -0.000272      0.000114     -0.000040
      5.78431      0.00000      5.62655         0.000685     -0.000603     -0.000039
     13.49672      0.00000      5.62655        -0.000345     -0.000064      0.000055
      5.78431      5.60512      5.62655         0.002846      0.002368      0.000721
     13.49672      5.60512      5.62655        -0.000505      0.000084      0.000051
      5.78431      2.80256      2.83122         0.002010      0.001223     -0.000490
     13.49672      2.80256      2.83122        -0.000821      0.000060      0.000077
      5.78431      8.40768      2.83122         0.000113     -0.000737      0.000358
     13.49672      8.40768      2.83122        -0.000270     -0.000059     -0.000021
      5.78431      2.80256      8.46973         0.000696      0.000393      0.000143
     13.49672      2.80256      8.46973        -0.000357      0.000005     -0.000025
      5.78431      8.40768      8.46973         0.000289     -0.000542     -0.000446
     13.49672      8.40768      8.46973        -0.000272     -0.000005      0.000047
      0.00000      2.80256      0.00000        -0.000690      0.000423     -0.001104
      7.71241      2.80256      0.00000        -0.000022      0.000012      0.000113
      0.00000      8.40768      0.00000        -0.000020     -0.000092      0.000062
      7.71241      8.40768      0.00000        -0.000101     -0.000098      0.000071
      0.00000      2.80256      5.63851        -0.000600     -0.000193      0.000607
      7.71241      2.80256      5.63851        -0.000459      0.001153     -0.000575
      0.00000      8.40768      5.63851        -0.000318      0.000318     -0.000135
      7.71241      8.40768      5.63851        -0.000460     -0.001276      0.000370
      0.00000      0.00000      2.81926        -0.000499     -0.001111      0.000346
      7.71241      0.00000      2.81926        -0.000266      0.000217     -0.000078
      0.00000      5.60512      2.81926        -0.000336      0.000764     -0.000378
      7.71241      5.60512      2.81926        -0.000783     -0.000406      0.000996
      0.00000      0.00000      8.45777        -0.000145     -0.000110      0.000066
      7.71241      0.00000      8.45777         0.000014     -0.000104      0.000065
      0.00000      5.60512      8.45777        -0.000203     -0.000034      0.000327
      7.71241      5.60512      8.45777        -0.000561      0.000436     -0.001326
      3.85621      2.80256      0.00000         0.000818      0.000162     -0.000223
     11.56862      2.80256      0.00000        -0.000325      0.000042     -0.000019
      3.85621      8.40768      0.00000         0.000421     -0.000196      0.000028
     11.56862      8.40768      0.00000        -0.000284     -0.000036     -0.000027
      3.85621      2.80256      5.63851         0.005068      0.005858     -0.001856
     11.56862      2.80256      5.63851        -0.000398      0.000144      0.000090
      3.85621      8.40768      5.63851         0.001026     -0.001205     -0.000475
     11.56862      8.40768      5.63851        -0.000341     -0.000094     -0.000005
      3.85621      0.00000      2.81926         0.000784     -0.001047     -0.000553
     11.56862      0.00000      2.81926        -0.000339     -0.000086     -0.000030
      3.85621      5.60512      2.81926         0.004785      0.004006      0.000391
     11.56862      5.60512      2.81926        -0.000392      0.000087      0.000100
      3.85621      0.00000      8.45777         0.000425     -0.000198      0.000075
     11.56862      0.00000      8.45777        -0.000290     -0.000073     -0.000034
      3.85621      5.60512      8.45777         0.000945      0.000403     -0.000100
     11.56862      5.60512      8.45777        -0.000348      0.000009     -0.000064
 -----------------------------------------------------------------------------------
    total drift:                                0.000093      0.000027     -0.000036


--------------------------------------------------------------------------------------------------------



  FREE ENERGIE OF THE ION-ELECTRON SYSTEM (eV)
  ---------------------------------------------------
  free  energy   TOTEN  =      -821.92030328 eV

  energy  without entropy=     -821.92030328  energy(sigma->0) =     -821.92030328
 


--------------------------------------------------------------------------------------------------------


    POTLOK:  cpu time    2.3375: real time    2.4202


--------------------------------------------------------------------------------------------------------


     LOOP+:  cpu time 9101.9952: real time 9270.5064
    4ORBIT:  cpu time    0.0000: real time    0.0000

 total amount of memory used by VASP MPI-rank0   984794. kBytes
=======================================================================

   base      :      30000. kBytes
   nonl-proj :     101936. kBytes
   fftplans  :      64934. kBytes
   grid      :      55554. kBytes
   one-center:        839. kBytes
   wavefun   :     731531. kBytes
 
  
  
 General timing and accounting informations for this job:
 ========================================================
  
                  Total CPU time used (sec):     9246.681
                            User time (sec):     9188.232
                          System time (sec):       58.449
                         Elapsed time (sec):     9418.651
  
                   Maximum memory used (kb):     1172180.
                   Average memory used (kb):           0.
  
                          Minor page faults:      1209895
                          Major page faults:            5
                 Voluntary context switches:        55675
