 160 160   0   0
  0.1215613E+02  0.1537564E-08  0.1124787E-08  0.1124760E-08  0.5000000E-15
  1.000000000000000E-004
  CAR 
 unknown system                          
     17.04921265    -54.78958973  301      4.89648192      1.00000000
    -54.790  0.0000E+00  0.0000E+00  0.0000E+00  0.0000E+00
    -54.550  0.0000E+00  0.0000E+00  0.0000E+00  0.0000E+00
    -54.311  0.0000E+00  0.0000E+00  0.0000E+00  0.0000E+00
    -54.071  0.0000E+00  0.0000E+00  0.0000E+00  0.0000E+00
    -53.832  0.0000E+00  0.0000E+00  0.0000E+00  0.0000E+00
    -53.592  0.0000E+00  0.0000E+00  0.0000E+00  0.0000E+00
    -53.353  0.0000E+00  0.0000E+00  0.0000E+00  0.0000E+00
    -53.113  0.0000E+00  0.0000E+00  0.0000E+00  0.0000E+00
    -52.874  0.0000E+00  0.0000E+00  0.0000E+00  0.0000E+00
    -52.634  0.0000E+00  0.0000E+00  0.0000E+00  0.0000E+00
    -52.395  0.0000E+00  0.0000E+00  0.0000E+00  0.0000E+00
    -52.156  0.0000E+00  0.0000E+00  0.0000E+00  0.0000E+00
    -51.916  0.0000E+00  0.0000E+00  0.0000E+00  0.0000E+00
    -51.677  0.3977E-03  0.0000E+00  0.9523E-04  0.0000E+00
    -51.437  0.8210E+02  0.0000E+00  0.1966E+02  0.0000E+00
    -51.198  0.5154E+02  0.0000E+00  0.3200E+02  0.0000E+00
    -50.958  0.0000E+00  0.0000E+00  0.3200E+02  0.0000E+00
    -50.719  0.0000E+00  0.0000E+00  0.3200E+02  0.0000E+00
    -50.479  0.5813E-13  0.0000E+00  0.3200E+02  0.0000E+00
    -50.240  0.7803E+01  0.0000E+00  0.3387E+02  0.0000E+00
    -50.000  0.1685E+03  0.0000E+00  0.7421E+02  0.0000E+00
    -49.761  0.9101E+02  0.0000E+00  0.9600E+02  0.0000E+00
    -49.521  0.0000E+00  0.0000E+00  0.9600E+02  0.0000E+00
    -49.282  0.0000E+00  0.0000E+00  0.9600E+02  0.0000E+00
    -49.042  0.0000E+00  0.0000E+00  0.9600E+02  0.0000E+00
    -48.803  0.0000E+00  0.0000E+00  0.9600E+02  0.0000E+00
    -48.564  0.0000E+00  0.0000E+00  0.9600E+02  0.0000E+00
    -48.324  0.0000E+00  0.0000E+00  0.9600E+02  0.0000E+00
    -48.085  0.0000E+00  0.0000E+00  0.9600E+02  0.0000E+00
    -47.845  0.0000E+00  0.0000E+00  0.9600E+02  0.0000E+00
    -47.606  0.0000E+00  0.0000E+00  0.9600E+02  0.0000E+00
    -47.366  0.0000E+00  0.0000E+00  0.9600E+02  0.0000E+00
    -47.127  0.0000E+00  0.0000E+00  0.9600E+02  0.0000E+00
    -46.887  0.0000E+00  0.1974E+00  0.9600E+02  0.4728E-01
    -46.648  0.0000E+00  0.1062E+03  0.9600E+02  0.2548E+02
    -46.408  0.0000E+00  0.1047E+03  0.9600E+02  0.5056E+02
    -46.169  0.0000E+00  0.1895E+03  0.9600E+02  0.9593E+02
    -45.929  0.0000E+00  0.3042E+00  0.9600E+02  0.9600E+02
    -45.690  0.0000E+00  0.0000E+00  0.9600E+02  0.9600E+02
    -45.451  0.0000E+00  0.0000E+00  0.9600E+02  0.9600E+02
    -45.211  0.0000E+00  0.0000E+00  0.9600E+02  0.9600E+02
    -44.972  0.0000E+00  0.0000E+00  0.9600E+02  0.9600E+02
    -44.732  0.0000E+00  0.0000E+00  0.9600E+02  0.9600E+02
    -44.493  0.0000E+00  0.0000E+00  0.9600E+02  0.9600E+02
    -44.253  0.0000E+00  0.0000E+00  0.9600E+02  0.9600E+02
    -44.014  0.0000E+00  0.0000E+00  0.9600E+02  0.9600E+02
    -43.774  0.0000E+00  0.0000E+00  0.9600E+02  0.9600E+02
    -43.535  0.0000E+00  0.0000E+00  0.9600E+02  0.9600E+02
    -43.295  0.0000E+00  0.0000E+00  0.9600E+02  0.9600E+02
    -43.056  0.0000E+00  0.0000E+00  0.9600E+02  0.9600E+02
    -42.816  0.0000E+00  0.0000E+00  0.9600E+02  0.9600E+02
    -42.577  0.0000E+00  0.0000E+00  0.9600E+02  0.9600E+02
    -42.338  0.0000E+00  0.0000E+00  0.9600E+02  0.9600E+02
    -42.098  0.0000E+00  0.0000E+00  0.9600E+02  0.9600E+02
    -41.859  0.0000E+00  0.0000E+00  0.9600E+02  0.9600E+02
    -41.619  0.0000E+00  0.0000E+00  0.9600E+02  0.9600E+02
    -41.380  0.0000E+00  0.0000E+00  0.9600E+02  0.9600E+02
    -41.140  0.0000E+00  0.0000E+00  0.9600E+02  0.9600E+02
    -40.901  0.0000E+00  0.0000E+00  0.9600E+02  0.9600E+02
    -40.661  0.2395E-14  0.2318E-15  0.9600E+02  0.9600E+02
    -40.422  0.3753E+01  0.3303E+01  0.9690E+02  0.9679E+02
    -40.182  0.1803E+03  0.1829E+03  0.1401E+03  0.1406E+03
    -39.943  0.8316E+02  0.8110E+02  0.1600E+03  0.1600E+03
    -39.703  0.0000E+00  0.0000E+00  0.1600E+03  0.1600E+03
    -39.464  0.0000E+00  0.0000E+00  0.1600E+03  0.1600E+03
    -39.225  0.0000E+00  0.0000E+00  0.1600E+03  0.1600E+03
    -38.985  0.0000E+00  0.0000E+00  0.1600E+03  0.1600E+03
    -38.746  0.0000E+00  0.0000E+00  0.1600E+03  0.1600E+03
    -38.506  0.0000E+00  0.0000E+00  0.1600E+03  0.1600E+03
    -38.267  0.0000E+00  0.0000E+00  0.1600E+03  0.1600E+03
    -38.027  0.0000E+00  0.0000E+00  0.1600E+03  0.1600E+03
    -37.788  0.0000E+00  0.0000E+00  0.1600E+03  0.1600E+03
    -37.548  0.0000E+00  0.0000E+00  0.1600E+03  0.1600E+03
    -37.309  0.0000E+00  0.0000E+00  0.1600E+03  0.1600E+03
    -37.069  0.0000E+00  0.0000E+00  0.1600E+03  0.1600E+03
    -36.830  0.0000E+00  0.0000E+00  0.1600E+03  0.1600E+03
    -36.590  0.0000E+00  0.0000E+00  0.1600E+03  0.1600E+03
    -36.351  0.0000E+00  0.0000E+00  0.1600E+03  0.1600E+03
    -36.112  0.0000E+00  0.0000E+00  0.1600E+03  0.1600E+03
    -35.872  0.0000E+00  0.0000E+00  0.1600E+03  0.1600E+03
    -35.633  0.0000E+00  0.0000E+00  0.1600E+03  0.1600E+03
    -35.393  0.0000E+00  0.0000E+00  0.1600E+03  0.1600E+03
    -35.154  0.0000E+00  0.0000E+00  0.1600E+03  0.1600E+03
    -34.914  0.0000E+00  0.0000E+00  0.1600E+03  0.1600E+03
    -34.675  0.0000E+00  0.0000E+00  0.1600E+03  0.1600E+03
    -34.435  0.0000E+00  0.0000E+00  0.1600E+03  0.1600E+03
    -34.196  0.0000E+00  0.0000E+00  0.1600E+03  0.1600E+03
    -33.956  0.0000E+00  0.0000E+00  0.1600E+03  0.1600E+03
    -33.717  0.0000E+00  0.0000E+00  0.1600E+03  0.1600E+03
    -33.477  0.0000E+00  0.0000E+00  0.1600E+03  0.1600E+03
    -33.238  0.0000E+00  0.0000E+00  0.1600E+03  0.1600E+03
    -32.998  0.0000E+00  0.0000E+00  0.1600E+03  0.1600E+03
    -32.759  0.0000E+00  0.0000E+00  0.1600E+03  0.1600E+03
    -32.520  0.0000E+00  0.0000E+00  0.1600E+03  0.1600E+03
    -32.280  0.0000E+00  0.0000E+00  0.1600E+03  0.1600E+03
    -32.041  0.0000E+00  0.0000E+00  0.1600E+03  0.1600E+03
    -31.801  0.0000E+00  0.0000E+00  0.1600E+03  0.1600E+03
    -31.562  0.0000E+00  0.0000E+00  0.1600E+03  0.1600E+03
    -31.322  0.0000E+00  0.0000E+00  0.1600E+03  0.1600E+03
    -31.083  0.0000E+00  0.0000E+00  0.1600E+03  0.1600E+03
    -30.843  0.0000E+00  0.0000E+00  0.1600E+03  0.1600E+03
    -30.604  0.0000E+00  0.0000E+00  0.1600E+03  0.1600E+03
    -30.364  0.0000E+00  0.0000E+00  0.1600E+03  0.1600E+03
    -30.125  0.0000E+00  0.0000E+00  0.1600E+03  0.1600E+03
    -29.885  0.0000E+00  0.0000E+00  0.1600E+03  0.1600E+03
    -29.646  0.0000E+00  0.0000E+00  0.1600E+03  0.1600E+03
    -29.407  0.0000E+00  0.0000E+00  0.1600E+03  0.1600E+03
    -29.167  0.0000E+00  0.0000E+00  0.1600E+03  0.1600E+03
    -28.928  0.0000E+00  0.0000E+00  0.1600E+03  0.1600E+03
    -28.688  0.0000E+00  0.0000E+00  0.1600E+03  0.1600E+03
    -28.449  0.0000E+00  0.0000E+00  0.1600E+03  0.1600E+03
    -28.209  0.0000E+00  0.0000E+00  0.1600E+03  0.1600E+03
    -27.970  0.0000E+00  0.0000E+00  0.1600E+03  0.1600E+03
    -27.730  0.0000E+00  0.0000E+00  0.1600E+03  0.1600E+03
    -27.491  0.0000E+00  0.0000E+00  0.1600E+03  0.1600E+03
    -27.251  0.0000E+00  0.0000E+00  0.1600E+03  0.1600E+03
    -27.012  0.0000E+00  0.0000E+00  0.1600E+03  0.1600E+03
    -26.772  0.0000E+00  0.0000E+00  0.1600E+03  0.1600E+03
    -26.533  0.0000E+00  0.0000E+00  0.1600E+03  0.1600E+03
    -26.294  0.0000E+00  0.0000E+00  0.1600E+03  0.1600E+03
    -26.054  0.0000E+00  0.0000E+00  0.1600E+03  0.1600E+03
    -25.815  0.0000E+00  0.0000E+00  0.1600E+03  0.1600E+03
    -25.575  0.0000E+00  0.0000E+00  0.1600E+03  0.1600E+03
    -25.336  0.0000E+00  0.0000E+00  0.1600E+03  0.1600E+03
    -25.096  0.0000E+00  0.0000E+00  0.1600E+03  0.1600E+03
    -24.857  0.0000E+00  0.0000E+00  0.1600E+03  0.1600E+03
    -24.617  0.0000E+00  0.0000E+00  0.1600E+03  0.1600E+03
    -24.378  0.0000E+00  0.0000E+00  0.1600E+03  0.1600E+03
    -24.138  0.0000E+00  0.0000E+00  0.1600E+03  0.1600E+03
    -23.899  0.0000E+00  0.0000E+00  0.1600E+03  0.1600E+03
    -23.659  0.0000E+00  0.0000E+00  0.1600E+03  0.1600E+03
    -23.420  0.0000E+00  0.0000E+00  0.1600E+03  0.1600E+03
    -23.181  0.0000E+00  0.0000E+00  0.1600E+03  0.1600E+03
    -22.941  0.0000E+00  0.0000E+00  0.1600E+03  0.1600E+03
    -22.702  0.0000E+00  0.0000E+00  0.1600E+03  0.1600E+03
    -22.462  0.0000E+00  0.0000E+00  0.1600E+03  0.1600E+03
    -22.223  0.0000E+00  0.0000E+00  0.1600E+03  0.1600E+03
    -21.983  0.0000E+00  0.0000E+00  0.1600E+03  0.1600E+03
    -21.744  0.0000E+00  0.0000E+00  0.1600E+03  0.1600E+03
    -21.504  0.0000E+00  0.0000E+00  0.1600E+03  0.1600E+03
    -21.265  0.0000E+00  0.0000E+00  0.1600E+03  0.1600E+03
    -21.025  0.0000E+00  0.0000E+00  0.1600E+03  0.1600E+03
    -20.786  0.0000E+00  0.0000E+00  0.1600E+03  0.1600E+03
    -20.546  0.0000E+00  0.0000E+00  0.1600E+03  0.1600E+03
    -20.307  0.0000E+00  0.0000E+00  0.1600E+03  0.1600E+03
    -20.068  0.0000E+00  0.0000E+00  0.1600E+03  0.1600E+03
    -19.828  0.0000E+00  0.0000E+00  0.1600E+03  0.1600E+03
    -19.589  0.0000E+00  0.0000E+00  0.1600E+03  0.1600E+03
    -19.349  0.0000E+00  0.0000E+00  0.1600E+03  0.1600E+03
    -19.110  0.0000E+00  0.0000E+00  0.1600E+03  0.1600E+03
    -18.870  0.0000E+00  0.0000E+00  0.1600E+03  0.1600E+03
    -18.631  0.0000E+00  0.0000E+00  0.1600E+03  0.1600E+03
    -18.391  0.0000E+00  0.0000E+00  0.1600E+03  0.1600E+03
    -18.152  0.0000E+00  0.0000E+00  0.1600E+03  0.1600E+03
    -17.912  0.0000E+00  0.0000E+00  0.1600E+03  0.1600E+03
    -17.673  0.0000E+00  0.0000E+00  0.1600E+03  0.1600E+03
    -17.433  0.0000E+00  0.0000E+00  0.1600E+03  0.1600E+03
    -17.194  0.0000E+00  0.0000E+00  0.1600E+03  0.1600E+03
    -16.954  0.0000E+00  0.0000E+00  0.1600E+03  0.1600E+03
    -16.715  0.0000E+00  0.0000E+00  0.1600E+03  0.1600E+03
    -16.476  0.0000E+00  0.0000E+00  0.1600E+03  0.1600E+03
    -16.236  0.0000E+00  0.0000E+00  0.1600E+03  0.1600E+03
    -15.997  0.0000E+00  0.0000E+00  0.1600E+03  0.1600E+03
    -15.757  0.0000E+00  0.0000E+00  0.1600E+03  0.1600E+03
    -15.518  0.0000E+00  0.0000E+00  0.1600E+03  0.1600E+03
    -15.278  0.0000E+00  0.0000E+00  0.1600E+03  0.1600E+03
    -15.039  0.0000E+00  0.0000E+00  0.1600E+03  0.1600E+03
    -14.799  0.0000E+00  0.0000E+00  0.1600E+03  0.1600E+03
    -14.560  0.0000E+00  0.0000E+00  0.1600E+03  0.1600E+03
    -14.320  0.0000E+00  0.0000E+00  0.1600E+03  0.1600E+03
    -14.081  0.0000E+00  0.0000E+00  0.1600E+03  0.1600E+03
    -13.841  0.0000E+00  0.0000E+00  0.1600E+03  0.1600E+03
    -13.602  0.1889E-01  0.0000E+00  0.1600E+03  0.1600E+03
    -13.363  0.5306E+02  0.2104E-05  0.1727E+03  0.1600E+03
    -13.123  0.7214E+02  0.2902E+02  0.1900E+03  0.1669E+03
    -12.884  0.8413E+01  0.9989E+02  0.1920E+03  0.1909E+03
    -12.644  0.0000E+00  0.4726E+01  0.1920E+03  0.1920E+03
    -12.405  0.0000E+00  0.0000E+00  0.1920E+03  0.1920E+03
    -12.165  0.0000E+00  0.0000E+00  0.1920E+03  0.1920E+03
    -11.926  0.0000E+00  0.0000E+00  0.1920E+03  0.1920E+03
    -11.686  0.0000E+00  0.0000E+00  0.1920E+03  0.1920E+03
    -11.447  0.0000E+00  0.0000E+00  0.1920E+03  0.1920E+03
    -11.207  0.0000E+00  0.0000E+00  0.1920E+03  0.1920E+03
    -10.968  0.0000E+00  0.0000E+00  0.1920E+03  0.1920E+03
    -10.728  0.0000E+00  0.0000E+00  0.1920E+03  0.1920E+03
    -10.489  0.0000E+00  0.0000E+00  0.1920E+03  0.1920E+03
    -10.250  0.0000E+00  0.0000E+00  0.1920E+03  0.1920E+03
    -10.010  0.0000E+00  0.0000E+00  0.1920E+03  0.1920E+03
     -9.771  0.0000E+00  0.0000E+00  0.1920E+03  0.1920E+03
     -9.531  0.0000E+00  0.0000E+00  0.1920E+03  0.1920E+03
     -9.292  0.0000E+00  0.0000E+00  0.1920E+03  0.1920E+03
     -9.052  0.0000E+00  0.0000E+00  0.1920E+03  0.1920E+03
     -8.813  0.0000E+00  0.0000E+00  0.1920E+03  0.1920E+03
     -8.573  0.0000E+00  0.0000E+00  0.1920E+03  0.1920E+03
     -8.334  0.0000E+00  0.0000E+00  0.1920E+03  0.1920E+03
     -8.094  0.0000E+00  0.0000E+00  0.1920E+03  0.1920E+03
     -7.855  0.4438E-10  0.0000E+00  0.1920E+03  0.1920E+03
     -7.615  0.1555E+01  0.4233E-07  0.1924E+03  0.1920E+03
     -7.376  0.4679E+02  0.7678E+01  0.2036E+03  0.1938E+03
     -7.137  0.6533E+02  0.6077E+02  0.2192E+03  0.2084E+03
     -6.897  0.1995E+02  0.5434E+02  0.2240E+03  0.2214E+03
     -6.658  0.9850E-02  0.1084E+02  0.2240E+03  0.2240E+03
     -6.418  0.0000E+00  0.3669E-02  0.2240E+03  0.2240E+03
     -6.179  0.0000E+00  0.0000E+00  0.2240E+03  0.2240E+03
     -5.939  0.0000E+00  0.0000E+00  0.2240E+03  0.2240E+03
     -5.700  0.0000E+00  0.0000E+00  0.2240E+03  0.2240E+03
     -5.460  0.0000E+00  0.0000E+00  0.2240E+03  0.2240E+03
     -5.221  0.0000E+00  0.0000E+00  0.2240E+03  0.2240E+03
     -4.981  0.0000E+00  0.0000E+00  0.2240E+03  0.2240E+03
     -4.742  0.0000E+00  0.0000E+00  0.2240E+03  0.2240E+03
     -4.502  0.0000E+00  0.0000E+00  0.2240E+03  0.2240E+03
     -4.263  0.0000E+00  0.0000E+00  0.2240E+03  0.2240E+03
     -4.024  0.0000E+00  0.0000E+00  0.2240E+03  0.2240E+03
     -3.784  0.0000E+00  0.0000E+00  0.2240E+03  0.2240E+03
     -3.545  0.0000E+00  0.0000E+00  0.2240E+03  0.2240E+03
     -3.305  0.0000E+00  0.0000E+00  0.2240E+03  0.2240E+03
     -3.066  0.0000E+00  0.0000E+00  0.2240E+03  0.2240E+03
     -2.826  0.4121E-15  0.0000E+00  0.2240E+03  0.2240E+03
     -2.587  0.4001E+00  0.0000E+00  0.2241E+03  0.2240E+03
     -2.347  0.3092E+02  0.0000E+00  0.2315E+03  0.2240E+03
     -2.108  0.1158E+02  0.0000E+00  0.2343E+03  0.2240E+03
     -1.868  0.1278E+02  0.0000E+00  0.2373E+03  0.2240E+03
     -1.629  0.1138E+02  0.0000E+00  0.2401E+03  0.2240E+03
     -1.389  0.1566E+02  0.0000E+00  0.2438E+03  0.2240E+03
     -1.150  0.6285E+02  0.2244E-05  0.2589E+03  0.2240E+03
     -0.910  0.7656E+02  0.3402E+01  0.2772E+03  0.2248E+03
     -0.671  0.6747E+02  0.3290E+02  0.2933E+03  0.2327E+03
     -0.432  0.7787E+02  0.1885E+02  0.3120E+03  0.2372E+03
     -0.192  0.1061E+03  0.1909E+02  0.3374E+03  0.2418E+03
      0.047  0.7855E+02  0.1225E+02  0.3562E+03  0.2447E+03
      0.287  0.5341E+02  0.3172E+02  0.3690E+03  0.2523E+03
      0.526  0.4758E+02  0.8139E+02  0.3804E+03  0.2718E+03
      0.766  0.4619E+02  0.6838E+02  0.3915E+03  0.2882E+03
      1.005  0.4672E+02  0.6982E+02  0.4026E+03  0.3049E+03
      1.245  0.7670E+02  0.6338E+02  0.4210E+03  0.3201E+03
      1.484  0.8770E+02  0.2171E+02  0.4420E+03  0.3253E+03
      1.724  0.5821E+02  0.5072E+02  0.4560E+03  0.3374E+03
      1.963  0.4000E+02  0.5158E+02  0.4655E+03  0.3498E+03
      2.203  0.4719E+02  0.3056E+02  0.4768E+03  0.3571E+03
      2.442  0.4164E+02  0.3906E+02  0.4868E+03  0.3664E+03
      2.681  0.5335E+02  0.6470E+02  0.4996E+03  0.3819E+03
      2.921  0.5387E+02  0.7217E+02  0.5125E+03  0.3992E+03
      3.160  0.5655E+02  0.5994E+02  0.5260E+03  0.4136E+03
      3.400  0.5303E+02  0.1610E+02  0.5387E+03  0.4174E+03
      3.639  0.5335E+02  0.3616E+02  0.5515E+03  0.4261E+03
      3.879  0.3989E+02  0.5941E+02  0.5610E+03  0.4403E+03
      4.118  0.3547E+02  0.3209E+02  0.5695E+03  0.4480E+03
      4.358  0.1926E+02  0.4369E-01  0.5742E+03  0.4480E+03
      4.597  0.7399E+01  0.0000E+00  0.5759E+03  0.4480E+03
      4.837  0.3200E+00  0.0000E+00  0.5760E+03  0.4480E+03
      5.076  0.0000E+00  0.0000E+00  0.5760E+03  0.4480E+03
      5.316  0.0000E+00  0.0000E+00  0.5760E+03  0.4480E+03
      5.555  0.0000E+00  0.0000E+00  0.5760E+03  0.4480E+03
      5.794  0.0000E+00  0.0000E+00  0.5760E+03  0.4480E+03
      6.034  0.0000E+00  0.0000E+00  0.5760E+03  0.4480E+03
      6.273  0.0000E+00  0.1545E-15  0.5760E+03  0.4480E+03
      6.513  0.0000E+00  0.6769E-01  0.5760E+03  0.4480E+03
      6.752  0.0000E+00  0.2435E+02  0.5760E+03  0.4538E+03
      6.992  0.7066E-06  0.7769E+02  0.5760E+03  0.4725E+03
      7.231  0.2292E+00  0.6320E+02  0.5761E+03  0.4876E+03
      7.471  0.1892E+00  0.6384E+02  0.5761E+03  0.5029E+03
      7.710  0.1385E+01  0.6307E+02  0.5764E+03  0.5180E+03
      7.950  0.3027E+01  0.9505E+02  0.5772E+03  0.5407E+03
      8.189  0.6552E+01  0.7271E+02  0.5787E+03  0.5581E+03
      8.429  0.9472E+01  0.4918E+02  0.5810E+03  0.5699E+03
      8.668  0.1876E+02  0.2499E+02  0.5855E+03  0.5759E+03
      8.907  0.2338E+02  0.7254E+01  0.5911E+03  0.5776E+03
      9.147  0.3137E+02  0.8605E+01  0.5986E+03  0.5797E+03
      9.386  0.2855E+02  0.1781E+02  0.6054E+03  0.5840E+03
      9.626  0.2977E+02  0.2684E+02  0.6126E+03  0.5904E+03
      9.865  0.2619E+02  0.3194E+02  0.6188E+03  0.5980E+03
     10.105  0.1754E+02  0.3779E+02  0.6230E+03  0.6071E+03
     10.344  0.2596E+02  0.3349E+02  0.6292E+03  0.6151E+03
     10.584  0.3634E+02  0.2857E+02  0.6380E+03  0.6220E+03
     10.823  0.4022E+02  0.3310E+02  0.6476E+03  0.6299E+03
     11.063  0.3303E+02  0.2820E+02  0.6555E+03  0.6366E+03
     11.302  0.4924E+02  0.2602E+02  0.6673E+03  0.6429E+03
     11.542  0.4114E+02  0.2919E+02  0.6771E+03  0.6499E+03
     11.781  0.4149E+02  0.5099E+02  0.6871E+03  0.6621E+03
     12.020  0.3406E+02  0.5025E+02  0.6952E+03  0.6741E+03
     12.260  0.3278E+02  0.5600E+02  0.7031E+03  0.6875E+03
     12.499  0.3252E+02  0.3157E+02  0.7109E+03  0.6951E+03
     12.739  0.3678E+02  0.3267E+02  0.7197E+03  0.7029E+03
     12.978  0.3448E+02  0.3218E+02  0.7279E+03  0.7106E+03
     13.218  0.1558E+02  0.3807E+02  0.7317E+03  0.7197E+03
     13.457  0.1072E+01  0.3355E+02  0.7319E+03  0.7278E+03
     13.697  0.3639E+00  0.1694E+02  0.7320E+03  0.7318E+03
     13.936  0.0000E+00  0.7801E+00  0.7320E+03  0.7320E+03
     14.176  0.0000E+00  0.3090E-05  0.7320E+03  0.7320E+03
     14.415  0.0000E+00  0.0000E+00  0.7320E+03  0.7320E+03
     14.655  0.0000E+00  0.0000E+00  0.7320E+03  0.7320E+03
     14.894  0.0000E+00  0.0000E+00  0.7320E+03  0.7320E+03
     15.134  0.0000E+00  0.0000E+00  0.7320E+03  0.7320E+03
     15.373  0.0000E+00  0.0000E+00  0.7320E+03  0.7320E+03
     15.612  0.0000E+00  0.0000E+00  0.7320E+03  0.7320E+03
     15.852  0.0000E+00  0.0000E+00  0.7320E+03  0.7320E+03
     16.091  0.0000E+00  0.0000E+00  0.7320E+03  0.7320E+03
     16.331  0.0000E+00  0.0000E+00  0.7320E+03  0.7320E+03
     16.570  0.0000E+00  0.0000E+00  0.7320E+03  0.7320E+03
     16.810  0.0000E+00  0.0000E+00  0.7320E+03  0.7320E+03
     17.049  0.0000E+00  0.0000E+00  0.7320E+03  0.7320E+03
