 vasp.5.4.4.18Apr17-6-g9f103f2a35 (build Oct 25 2017 14:42:18) complex          
  
 executed on             LinuxIFC date 2021.06.16  22:23:56
 running on   48 total cores
 distrk:  each k-point on   24 cores,    2 groups
 distr:  one band on NCORES_PER_BAND=   6 cores,    4 groups


--------------------------------------------------------------------------------------------------------


 INCAR:
 POTCAR:    PAW_PBE Li_sv 10Sep2004               
 POTCAR:    PAW_PBE Fe_pv 02Aug2007               
 POTCAR:    PAW_PBE S 06Sep2000                   
 POTCAR:    PAW_PBE O 08Apr2002                   

 ----------------------------------------------------------------------------- 
|                                                                             |
|           W    W    AA    RRRRR   N    N  II  N    N   GGGG   !!!           |
|           W    W   A  A   R    R  NN   N  II  NN   N  G    G  !!!           |
|           W    W  A    A  R    R  N N  N  II  N N  N  G       !!!           |
|           W WW W  AAAAAA  RRRRR   N  N N  II  N  N N  G  GGG   !            |
|           WW  WW  A    A  R   R   N   NN  II  N   NN  G    G                |
|           W    W  A    A  R    R  N    N  II  N    N   GGGG   !!!           |
|                                                                             |
|      You have enabled k-point parallelism (KPAR>1).                         |
|      This developmental code was originally  written by Paul Kent at ORNL,  |
|      and carefully double checked in Vienna.                                |
|      GW as well as linear response parallelism added by Martijn Marsman     |
|      and Georg Kresse.                                                      |
|      Carefully verify results versus KPAR=1.                                |
|      Report problems to Paul Kent and Vienna.                               |
|                                                                             |
 ----------------------------------------------------------------------------- 

 POTCAR:    PAW_PBE Li_sv 10Sep2004               
  local pseudopotential read in
  atomic valenz-charges read in
  non local Contribution for L=           0  read in
    real space projection operators read in
  non local Contribution for L=           0  read in
    real space projection operators read in
  non local Contribution for L=           1  read in
    real space projection operators read in
    PAW grid and wavefunctions read in
 
   number of l-projection  operators is LMAX  =           3
   number of lm-projection operators is LMMAX =           5
 
 POTCAR:    PAW_PBE Fe_pv 02Aug2007               
  local pseudopotential read in
  partial core-charges read in
  partial kinetic energy density read in
  atomic valenz-charges read in
  non local Contribution for L=           1  read in
    real space projection operators read in
  non local Contribution for L=           1  read in
    real space projection operators read in
  non local Contribution for L=           2  read in
    real space projection operators read in
  non local Contribution for L=           2  read in
    real space projection operators read in
  non local Contribution for L=           0  read in
    real space projection operators read in
  non local Contribution for L=           0  read in
    real space projection operators read in
    PAW grid and wavefunctions read in
 
   number of l-projection  operators is LMAX  =           6
   number of lm-projection operators is LMMAX =          18
 
 POTCAR:    PAW_PBE S 06Sep2000                   
  local pseudopotential read in
  partial core-charges read in
  partial kinetic energy density read in
  atomic valenz-charges read in
  non local Contribution for L=           0  read in
    real space projection operators read in
  non local Contribution for L=           0  read in
    real space projection operators read in
  non local Contribution for L=           1  read in
    real space projection operators read in
  non local Contribution for L=           1  read in
    real space projection operators read in
    PAW grid and wavefunctions read in
 
   number of l-projection  operators is LMAX  =           4
   number of lm-projection operators is LMMAX =           8
 
 POTCAR:    PAW_PBE O 08Apr2002                   
  local pseudopotential read in
  partial core-charges read in
  partial kinetic energy density read in
  kinetic energy density of atom read in
  atomic valenz-charges read in
  non local Contribution for L=           0  read in
    real space projection operators read in
  non local Contribution for L=           0  read in
    real space projection operators read in
  non local Contribution for L=           1  read in
    real space projection operators read in
  non local Contribution for L=           1  read in
    real space projection operators read in
    PAW grid and wavefunctions read in
 
   number of l-projection  operators is LMAX  =           4
   number of lm-projection operators is LMMAX =           8
 

 ----------------------------------------------------------------------------- 
|                                                                             |
|  ADVICE TO THIS USER RUNNING 'VASP/VAMP'   (HEAR YOUR MASTER'S VOICE ...):  |
|                                                                             |
|      You have a (more or less) 'large supercell' and for larger cells       |
|      it might be more efficient to use real space projection opertators     |
|      So try LREAL= Auto  in the INCAR   file.                               |
|      Mind:          For very  accurate calculation you might also keep the  |
|      reciprocal projection scheme          (i.e. LREAL=.FALSE.)             |
|                                                                             |
 ----------------------------------------------------------------------------- 

  PAW_PBE Li_sv 10Sep2004               :
 energy of atom  1       EATOM= -202.7858
 kinetic energy error for atom=    0.0072 (will be added to EATOM!!)
  PAW_PBE Fe_pv 02Aug2007               :
 energy of atom  2       EATOM=-2457.4239
 kinetic energy error for atom=    0.0041 (will be added to EATOM!!)
  PAW_PBE S 06Sep2000                   :
 energy of atom  3       EATOM= -276.8230
 kinetic energy error for atom=    0.0008 (will be added to EATOM!!)
  PAW_PBE O 08Apr2002                   :
 energy of atom  4       EATOM= -432.3788
 kinetic energy error for atom=    0.0129 (will be added to EATOM!!)
 
 
 POSCAR: # Compound: Li64Fe32S32O32. Old comment:
  positions in direct lattice
  No initial velocities read in
 exchange correlation table for  LEXCH =        8
   RHO(1)=    0.500       N(1)  =     2000
   RHO(2)=  100.500       N(2)  =     4000
 


--------------------------------------------------------------------------------------------------------


 ion  position               nearest neighbor table
   1  0.125  0.276  0.475- 149 1.96 133 1.97 105 2.54  97 2.55
   2  0.625  0.276  0.475- 150 1.96 134 1.97  98 2.54 106 2.54
   3  0.125  0.776  0.475- 151 1.96 135 1.97  99 2.54 107 2.54
   4  0.625  0.776  0.475- 152 1.96 136 1.97 100 2.54 108 2.54
   5  0.125  0.276  0.975- 145 1.96 129 1.97 101 2.54 109 2.54
   6  0.625  0.276  0.975- 146 1.96 130 1.97 102 2.54 110 2.54
   7  0.125  0.776  0.975- 147 1.96 131 1.97 103 2.54 111 2.54
   8  0.625  0.776  0.975- 148 1.96 132 1.97 104 2.54 112 2.54
   9  0.125  0.474  0.275- 155 1.96 139 1.97 105 2.54  97 2.54
  10  0.625  0.474  0.275- 156 1.96 140 1.97 106 2.54  98 2.54
  11  0.125  0.974  0.275- 153 1.96 137 1.97 107 2.54  99 2.54
  12  0.625  0.974  0.275- 154 1.96 138 1.97 108 2.54 100 2.54
  13  0.125  0.474  0.775- 159 1.96 143 1.97 109 2.54 101 2.54
  14  0.625  0.474  0.775- 160 1.96 144 1.97 110 2.54 102 2.54
  15  0.125  0.974  0.775- 157 1.96 141 1.97 111 2.54 103 2.54
  16  0.625  0.974  0.775- 158 1.96 142 1.97 112 2.54 104 2.54
  17  0.375  0.224  0.025- 145 1.96 130 1.97 113 2.54 121 2.54
  18  0.875  0.224  0.025- 146 1.96 129 1.97 114 2.54 122 2.54
  19  0.375  0.724  0.025- 147 1.96 132 1.97 115 2.54 123 2.54
  20  0.875  0.724  0.025- 148 1.96 131 1.97 116 2.54 124 2.54
  21  0.375  0.224  0.525- 149 1.96 134 1.97 117 2.54 125 2.54
  22  0.875  0.224  0.525- 150 1.96 133 1.97 118 2.54 126 2.54
  23  0.375  0.724  0.525- 151 1.96 136 1.97 119 2.54 127 2.54
  24  0.875  0.724  0.525- 152 1.96 135 1.97 120 2.54 128 2.54
  25  0.375  0.026  0.225- 153 1.96 138 1.97 121 2.54 113 2.54
  26  0.875  0.026  0.225- 154 1.96 137 1.97 122 2.54 114 2.54
  27  0.375  0.526  0.225- 155 1.96 140 1.97 123 2.54 115 2.54
  28  0.875  0.526  0.225- 156 1.96 139 1.97 124 2.54 116 2.54
  29  0.375  0.026  0.725- 157 1.96 142 1.97 125 2.54 117 2.54
  30  0.875  0.026  0.725- 158 1.96 141 1.97 126 2.54 118 2.54
  31  0.375  0.526  0.725- 159 1.96 144 1.97 127 2.54 119 2.54
  32  0.875  0.526  0.725- 160 1.96 143 1.97 128 2.54 120 2.54
  33  0.276  0.375  0.375- 149 2.01 155 2.01 119 2.52 121 2.52
  34  0.776  0.375  0.375- 150 2.01 156 2.01 120 2.52 122 2.52
  35  0.276  0.875  0.375- 151 2.01 153 2.01 117 2.52 123 2.52
  36  0.776  0.875  0.375- 152 2.01 154 2.01 118 2.52 124 2.52
  37  0.276  0.375  0.875- 145 2.01 159 2.01 115 2.52 125 2.52
  38  0.776  0.375  0.875- 146 2.01 160 2.01 116 2.52 126 2.52
  39  0.276  0.875  0.875- 147 2.01 157 2.01 113 2.52 127 2.52
  40  0.776  0.875  0.875- 148 2.01 158 2.01 114 2.52 128 2.52
  41  0.224  0.125  0.125- 145 2.01 153 2.01 103 2.52 105 2.52
  42  0.724  0.125  0.125- 146 2.01 154 2.01 104 2.52 106 2.52
  43  0.224  0.625  0.125- 147 2.01 155 2.01 101 2.52 107 2.52
  44  0.724  0.625  0.125- 148 2.01 156 2.01 102 2.52 108 2.52
  45  0.224  0.125  0.625- 149 2.01 157 2.01  99 2.52 109 2.52
  46  0.724  0.125  0.625- 150 2.01 158 2.01 100 2.52 110 2.52
  47  0.224  0.625  0.625- 151 2.01 159 2.01  97 2.51 111 2.52
  48  0.724  0.625  0.625- 152 2.01 160 2.01  98 2.52 112 2.52
  49  0.500  0.375  0.125- 130 2.00 140 2.00
  50  1.000  0.375  0.125- 129 2.00 139 2.00
  51  0.500  0.875  0.125- 132 2.00 138 2.00
  52  1.000  0.875  0.125- 131 2.00 137 2.00
  53  0.500  0.375  0.625- 134 2.00 144 2.00
  54  1.000  0.375  0.625- 133 2.00 143 2.00
  55  0.500  0.875  0.625- 136 2.00 142 2.00
  56  1.000  0.875  0.625- 135 2.00 141 2.00
  57  0.000  0.125  0.375- 133 2.00 137 2.00
  58  0.500  0.125  0.375- 134 2.00 138 2.00
  59  0.000  0.625  0.375- 135 2.00 139 2.00
  60  0.500  0.625  0.375- 136 2.00 140 2.00
  61  0.000  0.125  0.875- 129 2.00 141 2.00
  62  0.500  0.125  0.875- 130 2.00 142 2.00
  63  0.000  0.625  0.875- 131 2.00 143 2.00
  64  0.500  0.625  0.875- 132 2.00 144 2.00
  65  0.479  0.375  0.375- 134 2.00 140 2.00 119 2.57 121 2.57
  66  0.979  0.375  0.375- 133 2.00 139 2.00 120 2.57 122 2.57
  67  0.479  0.875  0.375- 136 2.00 138 2.00 117 2.57 123 2.57
  68  0.979  0.875  0.375- 135 2.00 137 2.00 118 2.57 124 2.57
  69  0.479  0.375  0.875- 130 2.00 144 2.00 115 2.57 125 2.57
  70  0.979  0.375  0.875- 129 2.00 143 2.00 116 2.57 126 2.57
  71  0.479  0.875  0.875- 132 2.00 142 2.00 113 2.57 127 2.57
  72  0.979  0.875  0.875- 131 2.00 141 2.00 114 2.57 128 2.57
  73  0.021  0.125  0.125- 129 2.00 137 2.00 103 2.57 105 2.57
  74  0.521  0.125  0.125- 130 2.00 138 2.00 104 2.57 106 2.57
  75  0.021  0.625  0.125- 131 2.00 139 2.00 101 2.57 107 2.57
  76  0.521  0.625  0.125- 132 2.00 140 2.00 102 2.57 108 2.57
  77  0.021  0.125  0.625- 133 2.00 141 2.00  99 2.57 109 2.57
  78  0.521  0.125  0.625- 134 2.00 142 2.00 100 2.57 110 2.57
  79  0.021  0.625  0.625- 135 2.00 143 2.00  97 2.57 111 2.57
  80  0.521  0.625  0.625- 136 2.00 144 2.00  98 2.57 112 2.57
  81  0.250  0.375  0.125- 145 2.00 155 2.00 115 2.75 121 2.75 101 2.75 105 2.75
  82  0.750  0.375  0.125- 146 2.00 156 2.00 116 2.75 122 2.75 102 2.75 106 2.75
  83  0.250  0.875  0.125- 147 2.00 153 2.00 113 2.75 123 2.75 103 2.75 107 2.75
  84  0.750  0.875  0.125- 148 2.00 154 2.00 114 2.75 124 2.75 104 2.75 108 2.75
  85  0.250  0.375  0.625- 149 2.00 159 2.00 119 2.75 125 2.75 109 2.75  97 2.76
  86  0.750  0.375  0.625- 150 2.00 160 2.00 120 2.75 126 2.75  98 2.75 110 2.75
  87  0.250  0.875  0.625- 151 2.00 157 2.00 117 2.75 127 2.75  99 2.75 111 2.75
  88  0.750  0.875  0.625- 152 2.00 158 2.00 118 2.75 128 2.75 100 2.75 112 2.75
  89  0.250  0.125  0.375- 149 2.00 153 2.00  99 2.75 105 2.75 117 2.75 121 2.75
  90  0.750  0.125  0.375- 150 2.00 154 2.00 100 2.75 106 2.75 118 2.75 122 2.75
  91  0.250  0.625  0.375- 151 2.00 155 2.00  97 2.74 107 2.75 119 2.75 123 2.75
  92  0.750  0.625  0.375- 152 2.00 156 2.00  98 2.75 108 2.75 120 2.75 124 2.75
  93  0.250  0.125  0.875- 145 2.00 157 2.00 103 2.75 109 2.75 113 2.75 125 2.75
  94  0.750  0.125  0.875- 146 2.00 158 2.00 104 2.75 110 2.75 114 2.75 126 2.75
  95  0.250  0.625  0.875- 147 2.00 159 2.00 101 2.75 111 2.75 115 2.75 127 2.75
  96  0.750  0.625  0.875- 148 2.00 160 2.00 102 2.75 112 2.75 116 2.75 128 2.75
  97  0.125  0.500  0.500-  47 2.51   9 2.54   1 2.55  79 2.57  91 2.74  85 2.76
  98  0.625  0.500  0.500-  48 2.52   2 2.54  10 2.54  80 2.57  92 2.75  86 2.75
  99  0.125  1.000  0.500-  45 2.52   3 2.54  11 2.54  77 2.57  89 2.75  87 2.75
 100  0.625  1.000  0.500-  46 2.52   4 2.54  12 2.54  78 2.57  90 2.75  88 2.75
 101  0.125  0.500  1.000-  43 2.52   5 2.54  13 2.54  75 2.57  95 2.75  81 2.75
 102  0.625  0.500  1.000-  44 2.52   6 2.54  14 2.54  76 2.57  96 2.75  82 2.75
 103  0.125  1.000  1.000-  41 2.52   7 2.54  15 2.54  73 2.57  93 2.75  83 2.75
 104  0.625  1.000  1.000-  42 2.52   8 2.54  16 2.54  74 2.57  94 2.75  84 2.75
 105  0.125  0.250  0.250-  41 2.52   9 2.54   1 2.54  73 2.57  89 2.75  81 2.75
 106  0.625  0.250  0.250-  42 2.52  10 2.54   2 2.54  74 2.57  90 2.75  82 2.75
 107  0.125  0.750  0.250-  43 2.52  11 2.54   3 2.54  75 2.57  91 2.75  83 2.75
 108  0.625  0.750  0.250-  44 2.52  12 2.54   4 2.54  76 2.57  92 2.75  84 2.75
 109  0.125  0.250  0.750-  45 2.52  13 2.54   5 2.54  77 2.57  93 2.75  85 2.75
 110  0.625  0.250  0.750-  46 2.52  14 2.54   6 2.54  78 2.57  94 2.75  86 2.75
 111  0.125  0.750  0.750-  47 2.52  15 2.54   7 2.54  79 2.57  95 2.75  87 2.75
 112  0.625  0.750  0.750-  48 2.52  16 2.54   8 2.54  80 2.57  96 2.75  88 2.75
 113  0.375  0.000  0.000-  39 2.52  17 2.54  25 2.54  71 2.57  83 2.75  93 2.75
 114  0.875  0.000  0.000-  40 2.52  18 2.54  26 2.54  72 2.57  84 2.75  94 2.75
 115  0.375  0.500  0.000-  37 2.52  19 2.54  27 2.54  69 2.57  81 2.75  95 2.75
 116  0.875  0.500  0.000-  38 2.52  20 2.54  28 2.54  70 2.57  82 2.75  96 2.75
 117  0.375  0.000  0.500-  35 2.52  21 2.54  29 2.54  67 2.57  87 2.75  89 2.75
 118  0.875  0.000  0.500-  36 2.52  22 2.54  30 2.54  68 2.57  88 2.75  90 2.75
 119  0.375  0.500  0.500-  33 2.52  23 2.54  31 2.54  65 2.57  85 2.75  91 2.75
 120  0.875  0.500  0.500-  34 2.52  24 2.54  32 2.54  66 2.57  86 2.75  92 2.75
 121  0.375  0.250  0.250-  33 2.52  25 2.54  17 2.54  65 2.57  81 2.75  89 2.75
 122  0.875  0.250  0.250-  34 2.52  26 2.54  18 2.54  66 2.57  82 2.75  90 2.75
 123  0.375  0.750  0.250-  35 2.52  27 2.54  19 2.54  67 2.57  83 2.75  91 2.75
 124  0.875  0.750  0.250-  36 2.52  28 2.54  20 2.54  68 2.57  84 2.75  92 2.75
 125  0.375  0.250  0.750-  37 2.52  29 2.54  21 2.54  69 2.57  85 2.75  93 2.75
 126  0.875  0.250  0.750-  38 2.52  30 2.54  22 2.54  70 2.57  86 2.75  94 2.75
 127  0.375  0.750  0.750-  39 2.52  31 2.54  23 2.54  71 2.57  87 2.75  95 2.75
 128  0.875  0.750  0.750-  40 2.52  32 2.54  24 2.54  72 2.57  88 2.75  96 2.75
 129  0.000  0.250  0.000-   5 1.97  18 1.97  70 2.00  73 2.00  50 2.00  61 2.00
 130  0.500  0.250  0.000-   6 1.97  17 1.97  69 2.00  74 2.00  49 2.00  62 2.00
 131  0.000  0.750  0.000-   7 1.97  20 1.97  72 2.00  75 2.00  52 2.00  63 2.00
 132  0.500  0.750  0.000-   8 1.97  19 1.97  71 2.00  76 2.00  51 2.00  64 2.00
 133  0.000  0.250  0.500-   1 1.97  22 1.97  66 2.00  77 2.00  54 2.00  57 2.00
 134  0.500  0.250  0.500-   2 1.97  21 1.97  65 2.00  78 2.00  53 2.00  58 2.00
 135  0.000  0.750  0.500-   3 1.97  24 1.97  68 2.00  79 2.00  56 2.00  59 2.00
 136  0.500  0.750  0.500-   4 1.97  23 1.97  67 2.00  80 2.00  55 2.00  60 2.00
 137  0.000  0.000  0.250-  11 1.97  26 1.97  68 2.00  73 2.00  52 2.00  57 2.00
 138  0.500  0.000  0.250-  12 1.97  25 1.97  67 2.00  74 2.00  51 2.00  58 2.00
 139  0.000  0.500  0.250-   9 1.97  28 1.97  66 2.00  75 2.00  50 2.00  59 2.00
 140  0.500  0.500  0.250-  10 1.97  27 1.97  65 2.00  76 2.00  49 2.00  60 2.00
 141  0.000  0.000  0.750-  15 1.97  30 1.97  72 2.00  77 2.00  56 2.00  61 2.00
 142  0.500  0.000  0.750-  16 1.97  29 1.97  71 2.00  78 2.00  55 2.00  62 2.00
 143  0.000  0.500  0.750-  13 1.97  32 1.97  70 2.00  79 2.00  54 2.00  63 2.00
 144  0.500  0.500  0.750-  14 1.97  31 1.97  69 2.00  80 2.00  53 2.00  64 2.00
 145  0.250  0.250  0.000-   5 1.96  17 1.96  81 2.00  93 2.00  37 2.01  41 2.01
 146  0.750  0.250  0.000-   6 1.96  18 1.96  82 2.00  94 2.00  38 2.01  42 2.01
 147  0.250  0.750  0.000-   7 1.96  19 1.96  83 2.00  95 2.00  39 2.01  43 2.01
 148  0.750  0.750  0.000-   8 1.96  20 1.96  84 2.00  96 2.00  40 2.01  44 2.01
 149  0.250  0.250  0.500-   1 1.96  21 1.96  85 2.00  89 2.00  33 2.01  45 2.01
 150  0.750  0.250  0.500-   2 1.96  22 1.96  86 2.00  90 2.00  34 2.01  46 2.01
 151  0.250  0.750  0.500-   3 1.96  23 1.96  87 2.00  91 2.00  35 2.01  47 2.01
 152  0.750  0.750  0.500-   4 1.96  24 1.96  88 2.00  92 2.00  36 2.01  48 2.01
 153  0.250  0.000  0.250-  11 1.96  25 1.96  83 2.00  89 2.00  35 2.01  41 2.01
 154  0.750  0.000  0.250-  12 1.96  26 1.96  84 2.00  90 2.00  36 2.01  42 2.01
 155  0.250  0.500  0.250-   9 1.96  27 1.96  81 2.00  91 2.00  33 2.01  43 2.01
 156  0.750  0.500  0.250-  10 1.96  28 1.96  82 2.00  92 2.00  34 2.01  44 2.01
 157  0.250  0.000  0.750-  15 1.96  29 1.96  87 2.00  93 2.00  39 2.01  45 2.01
 158  0.750  0.000  0.750-  16 1.96  30 1.96  88 2.00  94 2.00  40 2.01  46 2.01
 159  0.250  0.500  0.750-  13 1.96  31 1.96  85 2.00  95 2.00  37 2.01  47 2.01
 160  0.750  0.500  0.750-  14 1.96  32 1.96  86 2.00  96 2.00  38 2.01  48 2.01
 
  LATTYP: Found a simple monoclinic cell.
 ALAT       =    16.0245724362
 B/A-ratio  =     0.9595037360
 C/A-ratio  =     1.5788311284
 COS(beta)  =    -0.9500776273
  
  Lattice vectors:
  
 A1 = (   0.0000000000, -11.3322995400, -11.3298680000)
 A2 = ( -15.3756371200,   0.0000000000,   0.0000000000)
 A3 = (   0.0000000000,  22.5798703800,  11.4124580600)


Analysis of symmetry for initial positions (statically):
=====================================================================
 Subroutine PRICEL returns:
 Original cell was already a primitive cell.
 

 Routine SETGRP: Setting up the symmetry group for a 
 simple monoclinic supercell.


 Subroutine GETGRP returns: Found  1 space group operations
 (whereof  1 operations were pure point group operations)
 out of a pool of  4 trial point group operations.


The static configuration has the point symmetry C_1 .


Analysis of symmetry for dynamics (positions and initial velocities):
=====================================================================
 Subroutine PRICEL returns:
 Original cell was already a primitive cell.
 

 Routine SETGRP: Setting up the symmetry group for a 
 simple monoclinic supercell.


 Subroutine GETGRP returns: Found  1 space group operations
 (whereof  1 operations were pure point group operations)
 out of a pool of  4 trial point group operations.


The dynamic configuration has the point symmetry C_1 .


Analysis of structural, dynamic, and magnetic symmetry:
=====================================================================
 Subroutine PRICEL returns:
 Original cell was already a primitive cell.
 

 Routine SETGRP: Setting up the symmetry group for a 
 simple monoclinic supercell.


 Subroutine GETGRP returns: Found  1 space group operations
 (whereof  1 operations were pure point group operations)
 out of a pool of  4 trial point group operations.


The magnetic configuration has the point symmetry C_1 .


 Subroutine INISYM returns: Found  1 space group operations
 (whereof  1 operations are pure point group operations),
 and found     1 'primitive' translations

 
 
 KPOINTS: # No comment                            

Automatic generation of k-mesh.
Space group operators:
 irot       det(A)        alpha          n_x          n_y          n_z        tau_x        tau_y        tau_z
    1     1.000000     0.000001     1.000000     0.000000     0.000000     0.000000     0.000000     0.000000
 
 Subroutine IBZKPT returns following result:
 ===========================================
 
 Found     10 irreducible k-points:
 
 Following reciprocal coordinates:
            Coordinates               Weight
  0.000000  0.000000  0.000000      1.000000
  0.500000  0.000000  0.000000      1.000000
  0.000000  0.333333 -0.000000      2.000000
  0.500000  0.333333 -0.000000      2.000000
  0.000000 -0.000000  0.333333      2.000000
  0.500000 -0.000000  0.333333      2.000000
  0.000000  0.333333  0.333333      2.000000
  0.500000  0.333333  0.333333      2.000000
  0.000000 -0.333333  0.333333      2.000000
  0.500000 -0.333333  0.333333      2.000000
 
 Following cartesian coordinates:
            Coordinates               Weight
  0.000000  0.000000  0.000000      1.000000
  0.032519  0.000000  0.000000      1.000000
  0.000000  0.029638 -0.000223      2.000000
  0.032519  0.029638 -0.000223      2.000000
  0.000000 -0.000218  0.029638      2.000000
  0.032519 -0.000218  0.029638      2.000000
  0.000000  0.029420  0.029415      2.000000
  0.032519  0.029420  0.029415      2.000000
  0.000000 -0.029855  0.029862      2.000000
  0.032519 -0.029855  0.029862      2.000000
 


--------------------------------------------------------------------------------------------------------




 Dimension of arrays:
   k-points           NKPTS =     10   k-points in BZ     NKDIM =     10   number of bands    NBANDS=    732
   number of dos      NEDOS =    301   number of ions     NIONS =    160
   non local maximal  LDIM  =      6   non local SUM 2l+1 LMDIM =     18
   total plane-waves  NPLWV = ******
   max r-space proj   IRMAX =      1   max aug-charges    IRDMAX= 153046
   dimension x,y,z NGX =   128 NGY =   96 NGZ =   96
   dimension x,y,z NGXF=   256 NGYF=  192 NGZF=  192
   support grid    NGXF=   512 NGYF=  384 NGZF=  384
   ions per type =              64  32  32  32
   NGX,Y,Z   is equivalent  to a cutoff of  13.84, 14.19, 14.19 a.u.
   NGXF,Y,Z  is equivalent  to a cutoff of  27.68, 28.38, 28.38 a.u.

 SYSTEM =  unknown system                          
 POSCAR =  # Compound: Li64Fe32S32O32. Old comment:

 Startparameter for this run:
   NWRITE =      1    write-flag & timer
   PREC   = accura    normal or accurate (medium, high low for compatibility)
   ISTART =      0    job   : 0-new  1-cont  2-samecut
   ICHARG =      1    charge: 1-file 2-atom 10-const
   ISPIN  =      2    spin polarized calculation?
   LNONCOLLINEAR =      F non collinear calculations
   LSORBIT =      F    spin-orbit coupling
   INIWAV =      1    electr: 0-lowe 1-rand  2-diag
   LASPH  =      T    aspherical Exc in radial PAW
   METAGGA=      F    non-selfconsistent MetaGGA calc.

 Electronic Relaxation 1
   ENCUT  =  650.0 eV  47.77 Ry    6.91 a.u.  31.96 23.38 23.38*2*pi/ulx,y,z
   ENINI  =  650.0     initial cutoff
   ENAUG  =  628.9 eV  augmentation charge cutoff
   NELM   =    200;   NELMIN=  8; NELMDL=  0     # of ELM steps 
   EDIFF  = 0.1E-07   stopping-criterion for ELM
   LREAL  =      F    real-space projection
   NLSPLINE    = F    spline interpolate recip. space projectors
   LCOMPAT=      F    compatible to vasp.4.4
   GGA_COMPAT  = T    GGA compatible to vasp.4.4-vasp.4.6
   LMAXPAW     = -100 max onsite density
   LMAXMIX     =    4 max onsite mixed and CHGCAR
   VOSKOWN=      0    Vosko Wilk Nusair interpolation
   ROPT   =    0.00000   0.00000   0.00000   0.00000
 Ionic relaxation
   EDIFFG = 0.1E-06   stopping-criterion for IOM
   NSW    =      0    number of steps for IOM
   NBLOCK =      1;   KBLOCK =      1    inner block; outer block 
   IBRION =     -1    ionic relax: 0-MD 1-quasi-New 2-CG
   NFREE  =      0    steps in history (QN), initial steepest desc. (CG)
   ISIF   =      2    stress and relaxation
   IWAVPR =     10    prediction:  0-non 1-charg 2-wave 3-comb
   ISYM   =      2    0-nonsym 1-usesym 2-fastsym
   LCORR  =      T    Harris-Foulkes like correction to forces

   POTIM  = 0.5000    time-step for ionic-motion
   TEIN   =    0.0    initial temperature
   TEBEG  =    0.0;   TEEND  =   0.0 temperature during run
   SMASS  =  -3.00    Nose mass-parameter (am)
   estimated Nose-frequenzy (Omega)   =  0.10E-29 period in steps =****** mass=  -0.540E-26a.u.
   SCALEE = 1.0000    scale energy and forces
   NPACO  =    256;   APACO  = 16.0  distance and # of slots for P.C.
   PSTRESS=    0.0 pullay stress

  Mass of Ions in am
   POMASS =   7.01 55.85 32.07 16.00
  Ionic Valenz
   ZVAL   =   3.00 14.00  6.00  6.00
  Atomic Wigner-Seitz radii
   RWIGS  =  -1.00 -1.00 -1.00 -1.00
  virtual crystal weights 
   VCA    =   1.00  1.00  1.00  1.00
   NELECT =    1024.0000    total number of electrons
   NUPDOWN=      -1.0000    fix difference up-down

 DOS related values:
   EMIN   =  10.00;   EMAX   =-10.00  energy-range for DOS
   EFERMI =   0.00
   ISMEAR =     0;   SIGMA  =   0.05  broadening in eV -4-tet -1-fermi 0-gaus

 Electronic relaxation 2 (details)
   IALGO  =     38    algorithm
   LDIAG  =      T    sub-space diagonalisation (order eigenvalues)
   LSUBROT=      F    optimize rotation matrix (better conditioning)
   TURBO    =      0    0=normal 1=particle mesh
   IRESTART =      0    0=no restart 2=restart with 2 vectors
   NREBOOT  =      0    no. of reboots
   NMIN     =      0    reboot dimension
   EREF     =   0.00    reference energy to select bands
   IMIX   =      4    mixing-type and parameters
     AMIX     =   0.40;   BMIX     =  1.00
     AMIX_MAG =   1.60;   BMIX_MAG =  1.00
     AMIN     =   0.10
     WC   =   100.;   INIMIX=   1;  MIXPRE=   1;  MAXMIX= -45

 Intra band minimization:
   WEIMIN = 0.0000     energy-eigenvalue tresh-hold
   EBREAK =  0.34E-11  absolut break condition
   DEPER  =   0.30     relativ break condition  

   TIME   =   0.40     timestep for ELM

  volume/ion in A,a.u.               =      12.16        82.03
  Fermi-wavevector in a.u.,A,eV,Ry     =   1.321914  2.498054 23.775576  1.747456
  Thomas-Fermi vector in A             =   2.451633
 
 Write flags
   LWAVE        =      F    write WAVECAR
   LDOWNSAMPLE  =      F    k-point downsampling of WAVECAR
   LCHARG       =      T    write CHGCAR
   LVTOT        =      F    write LOCPOT, total local potential
   LVHAR        =      F    write LOCPOT, Hartree potential only
   LELF         =      F    write electronic localiz. function (ELF)
   LORBIT       =      0    0 simple, 1 ext, 2 COOP (PROOUT), +10 PAW based schemes


 Dipole corrections
   LMONO  =      F    monopole corrections only (constant potential shift)
   LDIPOL =      F    correct potential (dipole corrections)
   IDIPOL =      0    1-x, 2-y, 3-z, 4-all directions 
   EPSILON=  1.0000000 bulk dielectric constant

 LDA+U is selected, type is set to LDAUTYPE =  2
   angular momentum for each species LDAUL =    -1    2   -1   -1
   U (eV)           for each species LDAUU =   0.0  4.0  0.0  0.0
   J (eV)           for each species LDAUJ =   0.0  0.0  0.0  0.0
 Exchange correlation treatment:
   GGA     =    PE    GGA type
   LEXCH   =     8    internal setting for exchange type
   VOSKOWN=      0    Vosko Wilk Nusair interpolation
   LHFCALC =     F    Hartree Fock is set to
   LHFONE  =     F    Hartree Fock one center treatment
   AEXX    =    0.0000 exact exchange contribution

 Linear response parameters
   LEPSILON=     F    determine dielectric tensor
   LRPA    =     F    only Hartree local field effects (RPA)
   LNABLA  =     F    use nabla operator in PAW spheres
   LVEL    =     F    velocity operator in full k-point grid
   LINTERFAST=   F  fast interpolation
   KINTER  =     0    interpolate to denser k-point grid
   CSHIFT  =0.1000    complex shift for real part using Kramers Kronig
   OMEGAMAX=  -1.0    maximum frequency
   DEG_THRESHOLD= 0.2000000E-02 threshold for treating states as degnerate
   RTIME   =   -0.100 relaxation time in fs
  (WPLASMAI=    0.000 imaginary part of plasma frequency in eV, 0.658/RTIME)
   DFIELD  = 0.0000000 0.0000000 0.0000000 field for delta impulse in time
 
 Orbital magnetization related:
   ORBITALMAG=     F  switch on orbital magnetization
   LCHIMAG   =     F  perturbation theory with respect to B field
   DQ        =  0.001000  dq finite difference perturbation B field
   LLRAUG    =     F  two centre corrections for induced B field



--------------------------------------------------------------------------------------------------------


 Static calculation
 charge density and potential will be updated during run
 spin polarized calculation
 Variant of blocked Davidson
 Davidson routine will perform the subspace rotation
 perform sub-space diagonalisation
    after iterative eigenvector-optimisation
 modified Broyden-mixing scheme, WC =      100.0
 initial mixing is a Kerker type mixing with AMIX =  0.4000 and BMIX =      1.0000
 Hartree-type preconditioning will be used
 using additional bands          220
 reciprocal scheme for non local part
 use partial core corrections
 calculate Harris-corrections to forces 
   (improved forces if not selfconsistent)
 use gradient corrections 
 use of overlap-Matrix (Vanderbilt PP)
 Gauss-broadening in eV      SIGMA  =   0.05


--------------------------------------------------------------------------------------------------------


  energy-cutoff  :      650.00
  volume of cell :     1944.98
      direct lattice vectors                 reciprocal lattice vectors
    15.375637120  0.000000000  0.000000000     0.065037955  0.000000000  0.000000000
     0.000000000 11.247570840  0.082590060     0.000000000  0.088913005 -0.000669805
     0.000000000  0.084728700 11.247277940     0.000000000 -0.000652898  0.088915320

  length of vectors
    15.375637120 11.247874062 11.247597077     0.065037955  0.088915528  0.088917717


 
 k-points in units of 2pi/SCALE and weight: # No comment                            
   0.00000000  0.00000000  0.00000000       0.056
   0.03251898  0.00000000  0.00000000       0.056
   0.00000000  0.02963767 -0.00022327       0.111
   0.03251898  0.02963767 -0.00022327       0.111
   0.00000000 -0.00021763  0.02963844       0.111
   0.03251898 -0.00021763  0.02963844       0.111
   0.00000000  0.02942004  0.02941517       0.111
   0.03251898  0.02942004  0.02941517       0.111
   0.00000000 -0.02985530  0.02986171       0.111
   0.03251898 -0.02985530  0.02986171       0.111
 
 k-points in reciprocal lattice and weights: # No comment                            
   0.00000000  0.00000000  0.00000000       0.056
   0.50000000  0.00000000  0.00000000       0.056
   0.00000000  0.33333333 -0.00000000       0.111
   0.50000000  0.33333333 -0.00000000       0.111
   0.00000000 -0.00000000  0.33333333       0.111
   0.50000000 -0.00000000  0.33333333       0.111
   0.00000000  0.33333333  0.33333333       0.111
   0.50000000  0.33333333  0.33333333       0.111
   0.00000000 -0.33333333  0.33333333       0.111
   0.50000000 -0.33333333  0.33333333       0.111
 
 position of ions in fractional coordinates (direct lattice) 
   0.12525680  0.27553588  0.47453981
   0.62525680  0.27553588  0.47453981
   0.12525680  0.77553588  0.47453981
   0.62525680  0.77553588  0.47453981
   0.12525680  0.27553588  0.97453981
   0.62525680  0.27553588  0.97453981
   0.12525680  0.77553588  0.97453981
   0.62525680  0.77553588  0.97453981
   0.12525680  0.47446412  0.27546019
   0.62525680  0.47446412  0.27546019
   0.12525680  0.97446412  0.27546019
   0.62525680  0.97446412  0.27546019
   0.12525680  0.47446412  0.77546019
   0.62525680  0.47446412  0.77546019
   0.12525680  0.97446412  0.77546019
   0.62525680  0.97446412  0.77546019
   0.37474320  0.22446412  0.02546019
   0.87474320  0.22446412  0.02546019
   0.37474320  0.72446412  0.02546019
   0.87474320  0.72446412  0.02546019
   0.37474320  0.22446412  0.52546019
   0.87474320  0.22446412  0.52546019
   0.37474320  0.72446412  0.52546019
   0.87474320  0.72446412  0.52546019
   0.37474320  0.02553588  0.22453981
   0.87474320  0.02553588  0.22453981
   0.37474320  0.52553588  0.22453981
   0.87474320  0.52553588  0.22453981
   0.37474320  0.02553588  0.72453981
   0.87474320  0.02553588  0.72453981
   0.37474320  0.52553588  0.72453981
   0.87474320  0.52553588  0.72453981
   0.27600236  0.37500000  0.37500000
   0.77600236  0.37500000  0.37500000
   0.27600236  0.87500000  0.37500000
   0.77600236  0.87500000  0.37500000
   0.27600236  0.37500000  0.87500000
   0.77600236  0.37500000  0.87500000
   0.27600236  0.87500000  0.87500000
   0.77600236  0.87500000  0.87500000
   0.22399764  0.12500000  0.12500000
   0.72399764  0.12500000  0.12500000
   0.22399764  0.62500000  0.12500000
   0.72399764  0.62500000  0.12500000
   0.22399764  0.12500000  0.62500000
   0.72399764  0.12500000  0.62500000
   0.22399764  0.62500000  0.62500000
   0.72399764  0.62500000  0.62500000
   0.49994073  0.37500000  0.12500000
   0.99994073  0.37500000  0.12500000
   0.49994073  0.87500000  0.12500000
   0.99994073  0.87500000  0.12500000
   0.49994073  0.37500000  0.62500000
   0.99994073  0.37500000  0.62500000
   0.49994073  0.87500000  0.62500000
   0.99994073  0.87500000  0.62500000
   0.00005927  0.12500000  0.37500000
   0.50005927  0.12500000  0.37500000
   0.00005927  0.62500000  0.37500000
   0.50005927  0.62500000  0.37500000
   0.00005927  0.12500000  0.87500000
   0.50005927  0.12500000  0.87500000
   0.00005927  0.62500000  0.87500000
   0.50005927  0.62500000  0.87500000
   0.47912905  0.37500000  0.37500000
   0.97912905  0.37500000  0.37500000
   0.47912905  0.87500000  0.37500000
   0.97912905  0.87500000  0.37500000
   0.47912905  0.37500000  0.87500000
   0.97912905  0.37500000  0.87500000
   0.47912905  0.87500000  0.87500000
   0.97912905  0.87500000  0.87500000
   0.02087095  0.12500000  0.12500000
   0.52087095  0.12500000  0.12500000
   0.02087095  0.62500000  0.12500000
   0.52087095  0.62500000  0.12500000
   0.02087095  0.12500000  0.62500000
   0.52087095  0.12500000  0.62500000
   0.02087095  0.62500000  0.62500000
   0.52087095  0.62500000  0.62500000
   0.25003487  0.37500000  0.12500000
   0.75003487  0.37500000  0.12500000
   0.25003487  0.87500000  0.12500000
   0.75003487  0.87500000  0.12500000
   0.25003487  0.37500000  0.62500000
   0.75003487  0.37500000  0.62500000
   0.25003487  0.87500000  0.62500000
   0.75003487  0.87500000  0.62500000
   0.24996513  0.12500000  0.37500000
   0.74996513  0.12500000  0.37500000
   0.24996513  0.62500000  0.37500000
   0.74996513  0.62500000  0.37500000
   0.24996513  0.12500000  0.87500000
   0.74996513  0.12500000  0.87500000
   0.24996513  0.62500000  0.87500000
   0.74996513  0.62500000  0.87500000
   0.12546906  0.50048787  0.49958956
   0.62546906  0.49959881  0.49958956
   0.12546906  0.99959881  0.49958956
   0.62546906  0.99959881  0.49958956
   0.12546906  0.49959881  0.99958956
   0.62546906  0.49959881  0.99958956
   0.12546906  0.99959881  0.99958956
   0.62546906  0.99959881  0.99958956
   0.12546906  0.25040119  0.25041044
   0.62546906  0.25040119  0.25041044
   0.12546906  0.75040119  0.25041044
   0.62546906  0.75040119  0.25041044
   0.12546906  0.25040119  0.75041044
   0.62546906  0.25040119  0.75041044
   0.12546906  0.75040119  0.75041044
   0.62546906  0.75040119  0.75041044
   0.37453094  0.00040119  0.00041044
   0.87453094  0.00040119  0.00041044
   0.37453094  0.50040119  0.00041044
   0.87453094  0.50040119  0.00041044
   0.37453094  0.00040119  0.50041044
   0.87453094  0.00040119  0.50041044
   0.37453094  0.50040119  0.50041044
   0.87453094  0.50040119  0.50041044
   0.37453094  0.24959881  0.24958956
   0.87453094  0.24959881  0.24958956
   0.37453094  0.74959881  0.24958956
   0.87453094  0.74959881  0.24958956
   0.37453094  0.24959881  0.74958956
   0.87453094  0.24959881  0.74958956
   0.37453094  0.74959881  0.74958956
   0.87453094  0.74959881  0.74958956
   0.00000000  0.25000000  0.00000000
   0.50000000  0.25000000  0.00000000
   0.00000000  0.75000000  0.00000000
   0.50000000  0.75000000  0.00000000
   0.00000000  0.25000000  0.50000000
   0.50000000  0.25000000  0.50000000
   0.00000000  0.75000000  0.50000000
   0.50000000  0.75000000  0.50000000
   0.00000000  0.00000000  0.25000000
   0.50000000  0.00000000  0.25000000
   0.00000000  0.50000000  0.25000000
   0.50000000  0.50000000  0.25000000
   0.00000000  0.00000000  0.75000000
   0.50000000  0.00000000  0.75000000
   0.00000000  0.50000000  0.75000000
   0.50000000  0.50000000  0.75000000
   0.25000000  0.25000000  0.00000000
   0.75000000  0.25000000  0.00000000
   0.25000000  0.75000000  0.00000000
   0.75000000  0.75000000  0.00000000
   0.25000000  0.25000000  0.50000000
   0.75000000  0.25000000  0.50000000
   0.25000000  0.75000000  0.50000000
   0.75000000  0.75000000  0.50000000
   0.25000000  0.00000000  0.25000000
   0.75000000  0.00000000  0.25000000
   0.25000000  0.50000000  0.25000000
   0.75000000  0.50000000  0.25000000
   0.25000000  0.00000000  0.75000000
   0.75000000  0.00000000  0.75000000
   0.25000000  0.50000000  0.75000000
   0.75000000  0.50000000  0.75000000
 
 position of ions in cartesian coordinates  (Angst):
   1.92590310  3.13931647  5.36003766
   9.61372166  3.13931647  5.36003766
   1.92590310  8.76310189  5.40133269
   9.61372166  8.76310189  5.40133269
   1.92590310  3.18168082 10.98367663
   9.61372166  3.18168082 10.98367663
   1.92590310  8.80546624 11.02497166
   9.61372166  8.80546624 11.02497166
   1.92590310  5.35990818  3.13736334
   9.61372166  5.35990818  3.13736334
   1.92590310 10.98369360  3.17865837
   9.61372166 10.98369360  3.17865837
   1.92590310  5.40227253  8.76100231
   9.61372166  5.40227253  8.76100231
   1.92590310 11.02605795  8.80229734
   9.61372166 11.02605795  8.80229734
   5.76191546  2.52683330  0.30489634
  13.44973402  2.52683330  0.30489634
   5.76191546  8.15061872  0.34619137
  13.44973402  8.15061872  0.34619137
   5.76191546  2.56919765  5.92853531
  13.44973402  2.56919765  5.92853531
   5.76191546  8.19298307  5.96983034
  13.44973402  8.19298307  5.96983034
   5.76191546  0.30624159  2.52757066
  13.44973402  0.30624159  2.52757066
   5.76191546  5.93002701  2.56886569
  13.44973402  5.93002701  2.56886569
   5.76191546  0.34860594  8.15120963
  13.44973402  0.34860594  8.15120963
   5.76191546  5.97239136  8.19250466
  13.44973402  5.97239136  8.19250466
   4.24371213  4.24961233  4.24870050
  11.93153069  4.24961233  4.24870050
   4.24371213  9.87339775  4.28999553
  11.93153069  9.87339775  4.28999553
   4.24371213  4.29197668  9.87233947
  11.93153069  4.29197668  9.87233947
   4.24371213  9.91576210  9.91363450
  11.93153069  9.91576210  9.91363450
   3.44410643  1.41653744  1.41623350
  11.13192499  1.41653744  1.41623350
   3.44410643  7.04032286  1.45752853
  11.13192499  7.04032286  1.45752853
   3.44410643  1.45890179  7.03987247
  11.13192499  1.45890179  7.03987247
   3.44410643  7.08268721  7.08116750
  11.13192499  7.08268721  7.08116750
   7.68690717  4.22843015  1.43688101
  15.37472573  4.22843015  1.43688101
   7.68690717  9.85221557  1.47817605
  15.37472573  9.85221557  1.47817605
   7.68690717  4.27079450  7.06051999
  15.37472573  4.27079450  7.06051999
   7.68690717  9.89457992  7.10181502
  15.37472573  9.89457992  7.10181502
   0.00091139  1.43771962  4.22805298
   7.68872995  1.43771962  4.22805298
   0.00091139  7.06150504  4.26934801
   7.68872995  7.06150504  4.26934801
   0.00091139  1.48008397  9.85169195
   7.68872995  1.48008397  9.85169195
   0.00091139  7.10386939  9.89298699
   7.68872995  7.10386939  9.89298699
   7.36691433  4.24961233  4.24870050
  15.05473289  4.24961233  4.24870050
   7.36691433  9.87339775  4.28999553
  15.05473289  9.87339775  4.28999553
   7.36691433  4.29197668  9.87233947
  15.05473289  4.29197668  9.87233947
   7.36691433  9.91576210  9.91363450
  15.05473289  9.91576210  9.91363450
   0.32090423  1.41653744  1.41623350
   8.00872279  1.41653744  1.41623350
   0.32090423  7.04032286  1.45752853
   8.00872279  7.04032286  1.45752853
   0.32090423  1.45890179  7.03987247
   8.00872279  1.45890179  7.03987247
   0.32090423  7.08268721  7.08116750
   8.00872279  7.08268721  7.08116750
   3.84444535  4.22843015  1.43688101
  11.53226391  4.22843015  1.43688101
   3.84444535  9.85221557  1.47817605
  11.53226391  9.85221557  1.47817605
   3.84444535  4.27079450  7.06051999
  11.53226391  4.27079450  7.06051999
   3.84444535  9.89457992  7.10181502
  11.53226391  9.89457992  7.10181502
   3.84337321  1.43771962  4.22805298
  11.53119177  1.43771962  4.22805298
   3.84337321  7.06150504  4.26934801
  11.53119177  7.06150504  4.26934801
   3.84337321  1.48008397  9.85169195
  11.53119177  1.48008397  9.85169195
   3.84337321  7.10386939  9.89298699
  11.53119177  7.10386939  9.89298699
   1.92916681  5.67160231  5.66035790
   9.61698537  5.66160258  5.66028448
   1.92916681 11.28538800  5.70157951
   9.61698537 11.28538800  5.70157951
   1.92916681  5.70396693 11.28392345
   9.61698537  5.70396693 11.28392345
   1.92916681 11.32775235 11.32521848
   9.61698537 11.32775235 11.32521848
   1.92916681  2.83762207  2.83711652
   9.61698537  2.83762207  2.83711652
   1.92916681  8.46140749  2.87841155
   9.61698537  8.46140749  2.87841155
   1.92916681  2.87998642  8.46075549
   9.61698537  2.87998642  8.46075549
   1.92916681  8.50377184  8.50205052
   9.61698537  8.50377184  8.50205052
   5.75865175  0.00454719  0.00464952
  13.44647031  0.00454719  0.00464952
   5.75865175  5.62833261  0.04594455
  13.44647031  5.62833261  0.04594455
   5.75865175  0.04691154  5.62828849
  13.44647031  0.04691154  5.62828849
   5.75865175  5.67069696  5.66958352
  13.44647031  5.67069696  5.66958352
   5.75865175  2.82852770  2.82781748
  13.44647031  2.82852770  2.82781748
   5.75865175  8.45231312  2.86911251
  13.44647031  8.45231312  2.86911251
   5.75865175  2.87089205  8.45145645
  13.44647031  2.87089205  8.45145645
   5.75865175  8.49467747  8.49275148
  13.44647031  8.49467747  8.49275148
   0.00000000  2.81189271  0.02064752
   7.68781856  2.81189271  0.02064752
   0.00000000  8.43567813  0.06194255
   7.68781856  8.43567813  0.06194255
   0.00000000  2.85425706  5.64428649
   7.68781856  2.85425706  5.64428649
   0.00000000  8.47804248  5.68558151
   7.68781856  8.47804248  5.68558151
   0.00000000  0.02118218  2.81181949
   7.68781856  0.02118218  2.81181949
   0.00000000  5.64496759  2.85311452
   7.68781856  5.64496759  2.85311452
   0.00000000  0.06354653  8.43545845
   7.68781856  0.06354653  8.43545845
   0.00000000  5.68733194  8.47675348
   7.68781856  5.68733194  8.47675348
   3.84390928  2.81189271  0.02064752
  11.53172784  2.81189271  0.02064752
   3.84390928  8.43567813  0.06194255
  11.53172784  8.43567813  0.06194255
   3.84390928  2.85425706  5.64428649
  11.53172784  2.85425706  5.64428649
   3.84390928  8.47804248  5.68558151
  11.53172784  8.47804248  5.68558151
   3.84390928  0.02118218  2.81181949
  11.53172784  0.02118218  2.81181949
   3.84390928  5.64496759  2.85311452
  11.53172784  5.64496759  2.85311452
   3.84390928  0.06354653  8.43545845
  11.53172784  0.06354653  8.43545845
   3.84390928  5.68733194  8.47675348
  11.53172784  5.68733194  8.47675348
 


--------------------------------------------------------------------------------------------------------


 k-point  1 :   0.0000 0.0000 0.0000  plane waves:   73163
 k-point  2 :   0.5000 0.0000 0.0000  plane waves:   73208
 k-point  3 :   0.0000 0.3333-0.0000  plane waves:   73197
 k-point  4 :   0.5000 0.3333-0.0000  plane waves:   73182
 k-point  5 :   0.0000-0.0000 0.3333  plane waves:   73195
 k-point  6 :   0.5000-0.0000 0.3333  plane waves:   73178
 k-point  7 :   0.0000 0.3333 0.3333  plane waves:   73141
 k-point  8 :   0.5000 0.3333 0.3333  plane waves:   73198
 k-point  9 :   0.0000-0.3333 0.3333  plane waves:   73095
 k-point 10 :   0.5000-0.3333 0.3333  plane waves:   73224

 maximum and minimum number of plane-waves per node :     12268    12150

 maximum number of plane-waves:     73224
 maximum index in each direction: 
   IXMAX=   31   IYMAX=   23   IZMAX=   23
   IXMIN=  -32   IYMIN=  -23   IZMIN=  -23


 parallel 3D FFT for wavefunctions:
    minimum data exchange during FFTs selected (reduces bandwidth)
 parallel 3D FFT for charge:
    minimum data exchange during FFTs selected (reduces bandwidth)


 total amount of memory used by VASP MPI-rank0   985864. kBytes
=======================================================================

   base      :      30000. kBytes
   nonl-proj :     102069. kBytes
   fftplans  :      64934. kBytes
   grid      :      55554. kBytes
   one-center:        839. kBytes
   wavefun   :     732468. kBytes
 
     INWAV:  cpu time    0.0001: real time    0.0002
 Broyden mixing: mesh for mixing (old mesh)
   NGX = 63   NGY = 47   NGZ = 47
  (NGX  =256   NGY  =192   NGZ  =192)
  gives a total of 139167 points

 initial charge density was supplied:
 number of electron    1024.0000024 magnetization     128.0000040
 keeping initial charge density in first step


--------------------------------------------------------------------------------------------------------


 Maximum index for augmentation-charges         8015 (set IRDMAX)


--------------------------------------------------------------------------------------------------------


 First call to EWALD:  gamma=   0.142
 Maximum number of real-space cells 2x 3x 3
 Maximum number of reciprocal cells 3x 3x 3

    FEWALD:  cpu time    0.0214: real time    0.0235


--------------------------------------- Iteration      1(   1)  ---------------------------------------


    POTLOK:  cpu time    0.6882: real time    0.7047
    SETDIJ:  cpu time    1.6756: real time    1.7022
     EDDAV:  cpu time  349.6020: real time  355.7410
       DOS:  cpu time    0.0054: real time    0.0068
    --------------------------------------------
      LOOP:  cpu time  351.9712: real time  358.1547

 eigenvalue-minimisations  : 30712
 total energy-change (2. order) : 0.1347183E+05  (-0.5518316E+05)
 number of electron    1024.0000024 magnetization     128.0000040
 augmentation part     1024.0000024 magnetization     128.0000040

 Free energy of the ion-electron system (eV)
  ---------------------------------------------------
  alpha Z        PSCENC =      2580.95227926
  Ewald energy   TEWEN  =    -67508.42628814
  -Hartree energ DENC   =    -35944.19242331
  -exchange      EXHF   =         0.00000000
  -V(xc)+E(xc)   XCENC  =      4397.38415708
  PAW double counting   =    108731.45464712  -112348.03830957
  entropy T*S    EENTRO =        -0.03757753
  eigenvalues    EBANDS =      -746.54793015
  atomic energy  EATOM  =    114309.28505226
  Solvation  Ediel_sol  =         0.00000000
  ---------------------------------------------------
  free energy    TOTEN  =     13471.83360702 eV

  energy without entropy =    13471.87118455  energy(sigma->0) =    13471.85239578


--------------------------------------------------------------------------------------------------------




--------------------------------------- Iteration      1(   2)  ---------------------------------------


     EDDAV:  cpu time  336.6008: real time  342.2912
       DOS:  cpu time    0.0051: real time    0.0059
    --------------------------------------------
      LOOP:  cpu time  336.6059: real time  342.2971

 eigenvalue-minimisations  : 29280
 total energy-change (2. order) :-0.1205992E+05  (-0.1121277E+05)
 number of electron    1024.0000024 magnetization     128.0000040
 augmentation part     1024.0000024 magnetization     128.0000040

 Free energy of the ion-electron system (eV)
  ---------------------------------------------------
  alpha Z        PSCENC =      2580.95227926
  Ewald energy   TEWEN  =    -67508.42628814
  -Hartree energ DENC   =    -35944.19242331
  -exchange      EXHF   =         0.00000000
  -V(xc)+E(xc)   XCENC  =      4397.38415708
  PAW double counting   =    108731.45464712  -112348.03830957
  entropy T*S    EENTRO =        -0.06522426
  eigenvalues    EBANDS =    -12806.43860432
  atomic energy  EATOM  =    114309.28505226
  Solvation  Ediel_sol  =         0.00000000
  ---------------------------------------------------
  free energy    TOTEN  =      1411.91528612 eV

  energy without entropy =     1411.98051037  energy(sigma->0) =     1411.94789824


--------------------------------------------------------------------------------------------------------




--------------------------------------- Iteration      1(   3)  ---------------------------------------


     EDDAV:  cpu time  367.6372: real time  373.9646
       DOS:  cpu time    0.0022: real time    0.0022
    --------------------------------------------
      LOOP:  cpu time  367.6394: real time  373.9669

 eigenvalue-minimisations  : 32888
 total energy-change (2. order) :-0.1937288E+04  (-0.1738692E+04)
 number of electron    1024.0000024 magnetization     128.0000040
 augmentation part     1024.0000024 magnetization     128.0000040

 Free energy of the ion-electron system (eV)
  ---------------------------------------------------
  alpha Z        PSCENC =      2580.95227926
  Ewald energy   TEWEN  =    -67508.42628814
  -Hartree energ DENC   =    -35944.19242331
  -exchange      EXHF   =         0.00000000
  -V(xc)+E(xc)   XCENC  =      4397.38415708
  PAW double counting   =    108731.45464712  -112348.03830957
  entropy T*S    EENTRO =        -0.00000000
  eigenvalues    EBANDS =    -14743.79212062
  atomic energy  EATOM  =    114309.28505226
  Solvation  Ediel_sol  =         0.00000000
  ---------------------------------------------------
  free energy    TOTEN  =      -525.37300592 eV

  energy without entropy =     -525.37300592  energy(sigma->0) =     -525.37300592


--------------------------------------------------------------------------------------------------------




--------------------------------------- Iteration      1(   4)  ---------------------------------------


     EDDAV:  cpu time  423.5478: real time  429.8245
       DOS:  cpu time    0.0018: real time    0.0018
    --------------------------------------------
      LOOP:  cpu time  423.5496: real time  429.8263

 eigenvalue-minimisations  : 39296
 total energy-change (2. order) :-0.2634028E+03  (-0.2605282E+03)
 number of electron    1024.0000024 magnetization     128.0000040
 augmentation part     1024.0000024 magnetization     128.0000040

 Free energy of the ion-electron system (eV)
  ---------------------------------------------------
  alpha Z        PSCENC =      2580.95227926
  Ewald energy   TEWEN  =    -67508.42628814
  -Hartree energ DENC   =    -35944.19242331
  -exchange      EXHF   =         0.00000000
  -V(xc)+E(xc)   XCENC  =      4397.38415708
  PAW double counting   =    108731.45464712  -112348.03830957
  entropy T*S    EENTRO =        -0.00000000
  eigenvalues    EBANDS =    -15007.19495563
  atomic energy  EATOM  =    114309.28505226
  Solvation  Ediel_sol  =         0.00000000
  ---------------------------------------------------
  free energy    TOTEN  =      -788.77584094 eV

  energy without entropy =     -788.77584094  energy(sigma->0) =     -788.77584094


--------------------------------------------------------------------------------------------------------




--------------------------------------- Iteration      1(   5)  ---------------------------------------


     EDDAV:  cpu time  531.1942: real time  539.9447
       DOS:  cpu time    0.0017: real time    0.0017
    CHARGE:  cpu time    8.3120: real time    8.5514
    MIXING:  cpu time    0.0229: real time    0.0258
    --------------------------------------------
      LOOP:  cpu time  539.5308: real time  548.5236

 eigenvalue-minimisations  : 51424
 total energy-change (2. order) :-0.3178064E+02  (-0.3152576E+02)
 number of electron    1024.0000024 magnetization     128.0000033
 augmentation part      329.1881492 magnetization      84.1898222

 Broyden mixing:
  rms(total) = 0.31760E+00    rms(broyden)= 0.31725E+00
  rms(prec ) = 0.32111E+00
  weight for this iteration     100.00

 Free energy of the ion-electron system (eV)
  ---------------------------------------------------
  alpha Z        PSCENC =      2580.95227926
  Ewald energy   TEWEN  =    -67508.42628814
  -Hartree energ DENC   =    -35944.19242331
  -exchange      EXHF   =         0.00000000
  -V(xc)+E(xc)   XCENC  =      4397.38415708
  PAW double counting   =    108731.45464712  -112348.03830957
  entropy T*S    EENTRO =        -0.00000000
  eigenvalues    EBANDS =    -15038.97559146
  atomic energy  EATOM  =    114309.28505226
  Solvation  Ediel_sol  =         0.00000000
  ---------------------------------------------------
  free energy    TOTEN  =      -820.55647676 eV

  energy without entropy =     -820.55647676  energy(sigma->0) =     -820.55647676


--------------------------------------------------------------------------------------------------------




--------------------------------------- Iteration      1(   6)  ---------------------------------------


    POTLOK:  cpu time    0.6788: real time    0.6851
    SETDIJ:  cpu time    1.6783: real time    1.6814
     EDDAV:  cpu time  435.3551: real time  442.5326
       DOS:  cpu time    0.0018: real time    0.0018
    CHARGE:  cpu time    8.2878: real time    8.5202
    MIXING:  cpu time    0.0257: real time    0.0323
    --------------------------------------------
      LOOP:  cpu time  446.0276: real time  453.4534

 eigenvalue-minimisations  : 40648
 total energy-change (2. order) :-0.1437840E+01  (-0.1484994E+01)
 number of electron    1024.0000024 magnetization     128.0000028
 augmentation part      327.4394989 magnetization      84.3714556

 Broyden mixing:
  rms(total) = 0.13536E+00    rms(broyden)= 0.13505E+00
  rms(prec ) = 0.13606E+00
  weight for this iteration     100.00

 eigenvalues of (default mixing * dielectric matrix)
  average eigenvalue GAMMA=   0.6568
  0.6568

 Free energy of the ion-electron system (eV)
  ---------------------------------------------------
  alpha Z        PSCENC =      2580.95227926
  Ewald energy   TEWEN  =    -67508.42628814
  -Hartree energ DENC   =    -35935.82492314
  -exchange      EXHF   =         0.00000000
  -V(xc)+E(xc)   XCENC  =      4396.13728049
  PAW double counting   =    108542.99830218  -112153.98553626
  entropy T*S    EENTRO =        -0.00000000
  eigenvalues    EBANDS =    -15053.13048290
  atomic energy  EATOM  =    114309.28505226
  Solvation  Ediel_sol  =         0.00000000
  ---------------------------------------------------
  free energy    TOTEN  =      -821.99431627 eV

  energy without entropy =     -821.99431627  energy(sigma->0) =     -821.99431627


--------------------------------------------------------------------------------------------------------




--------------------------------------- Iteration      1(   7)  ---------------------------------------


    POTLOK:  cpu time    0.6729: real time    0.6762
    SETDIJ:  cpu time    1.6652: real time    1.7080
     EDDAV:  cpu time  494.9984: real time  502.7875
       DOS:  cpu time    0.0023: real time    0.0023
    CHARGE:  cpu time    8.3187: real time    8.5261
    MIXING:  cpu time    0.0324: real time    0.0350
    --------------------------------------------
      LOOP:  cpu time  505.6899: real time  513.7353

 eigenvalue-minimisations  : 47376
 total energy-change (2. order) :-0.7270689E-01  (-0.7197054E-01)
 number of electron    1024.0000024 magnetization     128.0000026
 augmentation part      327.1437311 magnetization      84.3009838

 Broyden mixing:
  rms(total) = 0.97705E-01    rms(broyden)= 0.97584E-01
  rms(prec ) = 0.99072E-01
  weight for this iteration     100.00

 eigenvalues of (default mixing * dielectric matrix)
  average eigenvalue GAMMA=   0.6011
  0.6011  0.6011

 Free energy of the ion-electron system (eV)
  ---------------------------------------------------
  alpha Z        PSCENC =      2580.95227926
  Ewald energy   TEWEN  =    -67508.42628814
  -Hartree energ DENC   =    -35938.47261634
  -exchange      EXHF   =         0.00000000
  -V(xc)+E(xc)   XCENC  =      4396.48005218
  PAW double counting   =    108586.47361759  -112198.90204605
  entropy T*S    EENTRO =        -0.00000000
  eigenvalues    EBANDS =    -15049.45707391
  atomic energy  EATOM  =    114309.28505226
  Solvation  Ediel_sol  =         0.00000000
  ---------------------------------------------------
  free energy    TOTEN  =      -822.06702316 eV

  energy without entropy =     -822.06702316  energy(sigma->0) =     -822.06702316


--------------------------------------------------------------------------------------------------------




--------------------------------------- Iteration      1(   8)  ---------------------------------------


    POTLOK:  cpu time    0.6590: real time    0.6674
    SETDIJ:  cpu time    1.6573: real time    1.6696
     EDDAV:  cpu time  469.6086: real time  477.4858
       DOS:  cpu time    0.0021: real time    0.0021
    CHARGE:  cpu time    8.3953: real time    8.5246
    MIXING:  cpu time    0.0326: real time    0.0397
    --------------------------------------------
      LOOP:  cpu time  480.3549: real time  488.3891

 eigenvalue-minimisations  : 44544
 total energy-change (2. order) :-0.1173219E-04  (-0.2789495E-02)
 number of electron    1024.0000024 magnetization     128.0000026
 augmentation part      327.0913055 magnetization      84.2868858

 Broyden mixing:
  rms(total) = 0.84779E-01    rms(broyden)= 0.84768E-01
  rms(prec ) = 0.86105E-01
  weight for this iteration     100.00

 eigenvalues of (default mixing * dielectric matrix)
  average eigenvalue GAMMA=   0.5426
  0.6215  0.6215  0.3849

 Free energy of the ion-electron system (eV)
  ---------------------------------------------------
  alpha Z        PSCENC =      2580.95227926
  Ewald energy   TEWEN  =    -67508.42628814
  -Hartree energ DENC   =    -35939.35082068
  -exchange      EXHF   =         0.00000000
  -V(xc)+E(xc)   XCENC  =      4396.62640065
  PAW double counting   =    108612.84905766  -112226.02250717
  entropy T*S    EENTRO =        -0.00000000
  eigenvalues    EBANDS =    -15047.98020872
  atomic energy  EATOM  =    114309.28505226
  Solvation  Ediel_sol  =         0.00000000
  ---------------------------------------------------
  free energy    TOTEN  =      -822.06703489 eV

  energy without entropy =     -822.06703489  energy(sigma->0) =     -822.06703489


--------------------------------------------------------------------------------------------------------




--------------------------------------- Iteration      1(   9)  ---------------------------------------


    POTLOK:  cpu time    0.6518: real time    0.6707
    SETDIJ:  cpu time    1.6642: real time    1.6845
     EDDAV:  cpu time  496.2647: real time  505.0199
       DOS:  cpu time    0.0022: real time    0.0023
    CHARGE:  cpu time    8.3776: real time    8.5903
    MIXING:  cpu time    0.0262: real time    0.0269
    --------------------------------------------
      LOOP:  cpu time  506.9866: real time  515.9945

 eigenvalue-minimisations  : 47512
 total energy-change (2. order) : 0.9506438E-03  (-0.1746607E-03)
 number of electron    1024.0000024 magnetization     128.0000025
 augmentation part      327.1004443 magnetization      84.2817654

 Broyden mixing:
  rms(total) = 0.77875E-01    rms(broyden)= 0.77874E-01
  rms(prec ) = 0.79080E-01
  weight for this iteration     100.00

 eigenvalues of (default mixing * dielectric matrix)
  average eigenvalue GAMMA=   0.5263
  0.6480  0.6480  0.4046  0.4046

 Free energy of the ion-electron system (eV)
  ---------------------------------------------------
  alpha Z        PSCENC =      2580.95227926
  Ewald energy   TEWEN  =    -67508.42628814
  -Hartree energ DENC   =    -35939.61263401
  -exchange      EXHF   =         0.00000000
  -V(xc)+E(xc)   XCENC  =      4396.68638009
  PAW double counting   =    108620.69438619  -112234.13377816
  entropy T*S    EENTRO =        -0.00000000
  eigenvalues    EBANDS =    -15047.51148172
  atomic energy  EATOM  =    114309.28505226
  Solvation  Ediel_sol  =         0.00000000
  ---------------------------------------------------
  free energy    TOTEN  =      -822.06608425 eV

  energy without entropy =     -822.06608425  energy(sigma->0) =     -822.06608425


--------------------------------------------------------------------------------------------------------




--------------------------------------- Iteration      1(  10)  ---------------------------------------


    POTLOK:  cpu time    0.6679: real time    0.6779
    SETDIJ:  cpu time    1.6708: real time    1.6783
     EDDAV:  cpu time  510.0646: real time  518.4090
       DOS:  cpu time    0.0019: real time    0.0019
    CHARGE:  cpu time    8.3238: real time    8.5599
    MIXING:  cpu time    0.0413: real time    0.0427
    --------------------------------------------
      LOOP:  cpu time  520.7704: real time  529.3698

 eigenvalue-minimisations  : 49304
 total energy-change (2. order) : 0.4724489E-03  (-0.1797646E-04)
 number of electron    1024.0000024 magnetization     128.0000020
 augmentation part      327.1065279 magnetization      84.2808917

 Broyden mixing:
  rms(total) = 0.74141E-01    rms(broyden)= 0.74141E-01
  rms(prec ) = 0.75265E-01
  weight for this iteration     100.00

 eigenvalues of (default mixing * dielectric matrix)
  average eigenvalue GAMMA=   0.7525
  1.0840  1.0840  0.5755  0.5755  0.4435

 Free energy of the ion-electron system (eV)
  ---------------------------------------------------
  alpha Z        PSCENC =      2580.95227926
  Ewald energy   TEWEN  =    -67508.42628814
  -Hartree energ DENC   =    -35939.84016370
  -exchange      EXHF   =         0.00000000
  -V(xc)+E(xc)   XCENC  =      4396.72284065
  PAW double counting   =    108625.18040484  -112238.77569963
  entropy T*S    EENTRO =        -0.00000000
  eigenvalues    EBANDS =    -15047.16403732
  atomic energy  EATOM  =    114309.28505226
  Solvation  Ediel_sol  =         0.00000000
  ---------------------------------------------------
  free energy    TOTEN  =      -822.06561180 eV

  energy without entropy =     -822.06561180  energy(sigma->0) =     -822.06561180


--------------------------------------------------------------------------------------------------------




--------------------------------------- Iteration      1(  11)  ---------------------------------------


    POTLOK:  cpu time    0.6551: real time    0.6664
    SETDIJ:  cpu time    1.6842: real time    1.6869
     EDDAV:  cpu time  532.8781: real time  541.4945
       DOS:  cpu time    0.0017: real time    0.0017
    CHARGE:  cpu time    8.4858: real time    8.6017
    MIXING:  cpu time    0.0341: real time    0.0348
    --------------------------------------------
      LOOP:  cpu time  543.7391: real time  552.4859

 eigenvalue-minimisations  : 51544
 total energy-change (2. order) : 0.2937835E-02  (-0.1260888E-03)
 number of electron    1024.0000024 magnetization     128.0000019
 augmentation part      327.1329271 magnetization      84.2808311

 Broyden mixing:
  rms(total) = 0.42684E-01    rms(broyden)= 0.42683E-01
  rms(prec ) = 0.43232E-01
  weight for this iteration     100.00

 eigenvalues of (default mixing * dielectric matrix)
  average eigenvalue GAMMA=   0.7430
  1.1944  1.1944  0.6115  0.6115  0.4230  0.4230

 Free energy of the ion-electron system (eV)
  ---------------------------------------------------
  alpha Z        PSCENC =      2580.95227926
  Ewald energy   TEWEN  =    -67508.42628814
  -Hartree energ DENC   =    -35941.75400193
  -exchange      EXHF   =         0.00000000
  -V(xc)+E(xc)   XCENC  =      4397.03285987
  PAW double counting   =    108668.03693880  -112283.05124071
  entropy T*S    EENTRO =        -0.00000000
  eigenvalues    EBANDS =    -15044.13827336
  atomic energy  EATOM  =    114309.28505226
  Solvation  Ediel_sol  =         0.00000000
  ---------------------------------------------------
  free energy    TOTEN  =      -822.06267396 eV

  energy without entropy =     -822.06267396  energy(sigma->0) =     -822.06267396


--------------------------------------------------------------------------------------------------------




--------------------------------------- Iteration      1(  12)  ---------------------------------------


    POTLOK:  cpu time    0.6615: real time    0.6662
    SETDIJ:  cpu time    1.6793: real time    1.7059
     EDDAV:  cpu time  406.8984: real time  413.7463
       DOS:  cpu time    0.0019: real time    0.0019
    CHARGE:  cpu time    8.4821: real time    8.5724
    MIXING:  cpu time    0.0353: real time    0.0405
    --------------------------------------------
      LOOP:  cpu time  417.7585: real time  424.7333

 eigenvalue-minimisations  : 37560
 total energy-change (2. order) : 0.1867623E-03  (-0.6110976E-04)
 number of electron    1024.0000024 magnetization     128.0000016
 augmentation part      327.1441705 magnetization      84.2795073

 Broyden mixing:
  rms(total) = 0.37209E-01    rms(broyden)= 0.37209E-01
  rms(prec ) = 0.37660E-01
  weight for this iteration     100.00

 eigenvalues of (default mixing * dielectric matrix)
  average eigenvalue GAMMA=   0.8267
  1.4479  1.4479  0.7200  0.7200  0.5064  0.5064  0.4383

 Free energy of the ion-electron system (eV)
  ---------------------------------------------------
  alpha Z        PSCENC =      2580.95227926
  Ewald energy   TEWEN  =    -67508.42628814
  -Hartree energ DENC   =    -35942.09348922
  -exchange      EXHF   =         0.00000000
  -V(xc)+E(xc)   XCENC  =      4397.07865586
  PAW double counting   =    108675.28162021  -112290.49483221
  entropy T*S    EENTRO =        -0.00000000
  eigenvalues    EBANDS =    -15043.64548522
  atomic energy  EATOM  =    114309.28505226
  Solvation  Ediel_sol  =         0.00000000
  ---------------------------------------------------
  free energy    TOTEN  =      -822.06248720 eV

  energy without entropy =     -822.06248720  energy(sigma->0) =     -822.06248720


--------------------------------------------------------------------------------------------------------




--------------------------------------- Iteration      1(  13)  ---------------------------------------


    POTLOK:  cpu time    0.6678: real time    0.6784
    SETDIJ:  cpu time    1.6663: real time    1.6836
     EDDAV:  cpu time  517.0624: real time  525.5495
       DOS:  cpu time    0.0028: real time    0.0028
    CHARGE:  cpu time    8.3832: real time    8.5954
    MIXING:  cpu time    0.0308: real time    0.0315
    --------------------------------------------
      LOOP:  cpu time  527.8134: real time  536.5413

 eigenvalue-minimisations  : 49664
 total energy-change (2. order) : 0.4996033E-03  (-0.2375701E-04)
 number of electron    1024.0000024 magnetization     128.0000015
 augmentation part      327.1548588 magnetization      84.2795845

 Broyden mixing:
  rms(total) = 0.24242E-01    rms(broyden)= 0.24242E-01
  rms(prec ) = 0.24492E-01
  weight for this iteration     100.00

 eigenvalues of (default mixing * dielectric matrix)
  average eigenvalue GAMMA=   0.8514
  1.6451  1.6451  0.7989  0.7989  0.5274  0.5274  0.4342  0.4342

 Free energy of the ion-electron system (eV)
  ---------------------------------------------------
  alpha Z        PSCENC =      2580.95227926
  Ewald energy   TEWEN  =    -67508.42628814
  -Hartree energ DENC   =    -35942.88623095
  -exchange      EXHF   =         0.00000000
  -V(xc)+E(xc)   XCENC  =      4397.19970651
  PAW double counting   =    108693.66092293  -112309.39321557
  entropy T*S    EENTRO =        -0.00000000
  eigenvalues    EBANDS =    -15042.45421390
  atomic energy  EATOM  =    114309.28505226
  Solvation  Ediel_sol  =         0.00000000
  ---------------------------------------------------
  free energy    TOTEN  =      -822.06198760 eV

  energy without entropy =     -822.06198760  energy(sigma->0) =     -822.06198760


--------------------------------------------------------------------------------------------------------




--------------------------------------- Iteration      1(  14)  ---------------------------------------


    POTLOK:  cpu time    0.6525: real time    0.6678
    SETDIJ:  cpu time    1.6558: real time    1.6916
     EDDAV:  cpu time  465.3389: real time  473.0867
       DOS:  cpu time    0.0017: real time    0.0017
    CHARGE:  cpu time    8.4631: real time    8.6253
    MIXING:  cpu time    0.0334: real time    0.0334
    --------------------------------------------
      LOOP:  cpu time  476.1453: real time  484.1065

 eigenvalue-minimisations  : 43960
 total energy-change (2. order) : 0.6582147E-04  (-0.1258051E-04)
 number of electron    1024.0000024 magnetization     128.0000011
 augmentation part      327.1599603 magnetization      84.2791084

 Broyden mixing:
  rms(total) = 0.19847E-01    rms(broyden)= 0.19847E-01
  rms(prec ) = 0.20047E-01
  weight for this iteration     100.00

 eigenvalues of (default mixing * dielectric matrix)
  average eigenvalue GAMMA=   1.0182
  2.2388  2.2388  0.9933  0.9933  0.6349  0.6349  0.4967  0.4967  0.4365

 Free energy of the ion-electron system (eV)
  ---------------------------------------------------
  alpha Z        PSCENC =      2580.95227926
  Ewald energy   TEWEN  =    -67508.42628814
  -Hartree energ DENC   =    -35943.15285926
  -exchange      EXHF   =         0.00000000
  -V(xc)+E(xc)   XCENC  =      4397.23278989
  PAW double counting   =    108700.48430911  -112316.34483264
  entropy T*S    EENTRO =        -0.00000000
  eigenvalues    EBANDS =    -15042.09237225
  atomic energy  EATOM  =    114309.28505226
  Solvation  Ediel_sol  =         0.00000000
  ---------------------------------------------------
  free energy    TOTEN  =      -822.06192178 eV

  energy without entropy =     -822.06192178  energy(sigma->0) =     -822.06192178


--------------------------------------------------------------------------------------------------------




--------------------------------------- Iteration      1(  15)  ---------------------------------------


    POTLOK:  cpu time    0.6622: real time    0.6774
    SETDIJ:  cpu time    1.6262: real time    1.6572
     EDDAV:  cpu time  512.9458: real time  520.8782
       DOS:  cpu time    0.0024: real time    0.0024
    CHARGE:  cpu time    8.3620: real time    8.6504
    MIXING:  cpu time    0.0368: real time    0.0394
    --------------------------------------------
      LOOP:  cpu time  523.6355: real time  531.9050

 eigenvalue-minimisations  : 49400
 total energy-change (2. order) : 0.1609619E-03  (-0.1115823E-04)
 number of electron    1024.0000024 magnetization     128.0000009
 augmentation part      327.1672484 magnetization      84.2796474

 Broyden mixing:
  rms(total) = 0.81415E-02    rms(broyden)= 0.81408E-02
  rms(prec ) = 0.82206E-02
  weight for this iteration     100.00

 eigenvalues of (default mixing * dielectric matrix)
  average eigenvalue GAMMA=   1.0670
  2.5869  2.5869  1.0794  1.0794  0.6963  0.6963  0.5228  0.5228  0.4497  0.4497

 Free energy of the ion-electron system (eV)
  ---------------------------------------------------
  alpha Z        PSCENC =      2580.95227926
  Ewald energy   TEWEN  =    -67508.42628814
  -Hartree energ DENC   =    -35943.81025786
  -exchange      EXHF   =         0.00000000
  -V(xc)+E(xc)   XCENC  =      4397.32496019
  PAW double counting   =    108718.42053167  -112334.66986560
  entropy T*S    EENTRO =        -0.00000000
  eigenvalues    EBANDS =    -15041.13817259
  atomic energy  EATOM  =    114309.28505226
  Solvation  Ediel_sol  =         0.00000000
  ---------------------------------------------------
  free energy    TOTEN  =      -822.06176082 eV

  energy without entropy =     -822.06176082  energy(sigma->0) =     -822.06176082


--------------------------------------------------------------------------------------------------------




--------------------------------------- Iteration      1(  16)  ---------------------------------------


    POTLOK:  cpu time    0.6708: real time    0.6840
    SETDIJ:  cpu time    1.6717: real time    1.6855
     EDDAV:  cpu time  408.0447: real time  414.9823
       DOS:  cpu time    0.0021: real time    0.0021
    CHARGE:  cpu time    8.4917: real time    8.6641
    MIXING:  cpu time    0.0305: real time    0.0360
    --------------------------------------------
      LOOP:  cpu time  418.9115: real time  426.0540

 eigenvalue-minimisations  : 37232
 total energy-change (2. order) : 0.1839545E-04  (-0.7788394E-05)
 number of electron    1024.0000024 magnetization     128.0000009
 augmentation part      327.1714358 magnetization      84.2791587

 Broyden mixing:
  rms(total) = 0.40528E-02    rms(broyden)= 0.40521E-02
  rms(prec ) = 0.40860E-02
  weight for this iteration     100.00

 eigenvalues of (default mixing * dielectric matrix)
  average eigenvalue GAMMA=   1.0736
  2.6761  2.6761  1.1826  1.1826  0.7731  0.7731  0.5730  0.5730  0.4899  0.4899
  0.4210

 Free energy of the ion-electron system (eV)
  ---------------------------------------------------
  alpha Z        PSCENC =      2580.95227926
  Ewald energy   TEWEN  =    -67508.42628814
  -Hartree energ DENC   =    -35944.05870673
  -exchange      EXHF   =         0.00000000
  -V(xc)+E(xc)   XCENC  =      4397.35743664
  PAW double counting   =    108725.12300266  -112341.52318056
  entropy T*S    EENTRO =        -0.00000000
  eigenvalues    EBANDS =    -15040.77133780
  atomic energy  EATOM  =    114309.28505226
  Solvation  Ediel_sol  =         0.00000000
  ---------------------------------------------------
  free energy    TOTEN  =      -822.06174242 eV

  energy without entropy =     -822.06174242  energy(sigma->0) =     -822.06174242


--------------------------------------------------------------------------------------------------------




--------------------------------------- Iteration      1(  17)  ---------------------------------------


    POTLOK:  cpu time    0.6561: real time    0.6693
    SETDIJ:  cpu time    1.6820: real time    1.6891
     EDDAV:  cpu time  479.7527: real time  487.6898
       DOS:  cpu time    0.0038: real time    0.0044
    CHARGE:  cpu time    8.4983: real time    8.6372
    MIXING:  cpu time    0.0415: real time    0.0415
    --------------------------------------------
      LOOP:  cpu time  490.6344: real time  498.7313

 eigenvalue-minimisations  : 45776
 total energy-change (2. order) : 0.4041620E-05  (-0.1425714E-05)
 number of electron    1024.0000024 magnetization     128.0000009
 augmentation part      327.1732684 magnetization      84.2793581

 Broyden mixing:
  rms(total) = 0.27017E-02    rms(broyden)= 0.27008E-02
  rms(prec ) = 0.27160E-02
  weight for this iteration     100.00

 eigenvalues of (default mixing * dielectric matrix)
  average eigenvalue GAMMA=   1.0564
  2.7803  2.7803  1.2261  1.2261  0.8147  0.8147  0.5887  0.5887  0.5019  0.5019
  0.4267  0.4267

 Free energy of the ion-electron system (eV)
  ---------------------------------------------------
  alpha Z        PSCENC =      2580.95227926
  Ewald energy   TEWEN  =    -67508.42628814
  -Hartree energ DENC   =    -35944.13084456
  -exchange      EXHF   =         0.00000000
  -V(xc)+E(xc)   XCENC  =      4397.36895434
  PAW double counting   =    108727.39153959  -112343.85610233
  entropy T*S    EENTRO =        -0.00000000
  eigenvalues    EBANDS =    -15040.64632880
  atomic energy  EATOM  =    114309.28505226
  Solvation  Ediel_sol  =         0.00000000
  ---------------------------------------------------
  free energy    TOTEN  =      -822.06173838 eV

  energy without entropy =     -822.06173838  energy(sigma->0) =     -822.06173838


--------------------------------------------------------------------------------------------------------




--------------------------------------- Iteration      1(  18)  ---------------------------------------


    POTLOK:  cpu time    0.6905: real time    0.6925
    SETDIJ:  cpu time    1.6657: real time    1.6850
     EDDAV:  cpu time  442.7903: real time  450.0409
       DOS:  cpu time    0.0017: real time    0.0017
    CHARGE:  cpu time    8.3012: real time    8.6569
    MIXING:  cpu time    0.0346: real time    0.0349
    --------------------------------------------
      LOOP:  cpu time  453.4841: real time  461.1119

 eigenvalue-minimisations  : 41544
 total energy-change (2. order) :-0.1578359E-05  (-0.3229404E-06)
 number of electron    1024.0000024 magnetization     128.0000007
 augmentation part      327.1745522 magnetization      84.2792234

 Broyden mixing:
  rms(total) = 0.24905E-02    rms(broyden)= 0.24897E-02
  rms(prec ) = 0.25043E-02
  weight for this iteration     100.00

 eigenvalues of (default mixing * dielectric matrix)
  average eigenvalue GAMMA=   1.2033
  3.5578  3.5578  1.4518  1.4518  0.9044  0.9044  0.6710  0.6710  0.5459  0.5459
  0.4819  0.4819  0.4170

 Free energy of the ion-electron system (eV)
  ---------------------------------------------------
  alpha Z        PSCENC =      2580.95227926
  Ewald energy   TEWEN  =    -67508.42628814
  -Hartree energ DENC   =    -35944.12561690
  -exchange      EXHF   =         0.00000000
  -V(xc)+E(xc)   XCENC  =      4397.36849710
  PAW double counting   =    108727.70060497  -112344.17207159
  entropy T*S    EENTRO =        -0.00000000
  eigenvalues    EBANDS =    -15040.64419691
  atomic energy  EATOM  =    114309.28505226
  Solvation  Ediel_sol  =         0.00000000
  ---------------------------------------------------
  free energy    TOTEN  =      -822.06173996 eV

  energy without entropy =     -822.06173996  energy(sigma->0) =     -822.06173996


--------------------------------------------------------------------------------------------------------




--------------------------------------- Iteration      1(  19)  ---------------------------------------


    POTLOK:  cpu time    0.6540: real time    0.6636
    SETDIJ:  cpu time    1.6450: real time    1.6908
     EDDAV:  cpu time  380.9778: real time  387.4787
       DOS:  cpu time    0.0020: real time    0.0020
    CHARGE:  cpu time    8.4262: real time    8.6615
    MIXING:  cpu time    0.0426: real time    0.0432
    --------------------------------------------
      LOOP:  cpu time  391.7476: real time  398.5399

 eigenvalue-minimisations  : 34408
 total energy-change (2. order) :-0.6639297E-05  (-0.1047131E-06)
 number of electron    1024.0000024 magnetization     128.0000007
 augmentation part      327.1744329 magnetization      84.2791966

 Broyden mixing:
  rms(total) = 0.14716E-02    rms(broyden)= 0.14703E-02
  rms(prec ) = 0.15024E-02
  weight for this iteration     100.00

 eigenvalues of (default mixing * dielectric matrix)
  average eigenvalue GAMMA=   1.1045
  3.1336  2.6364  1.4680  1.4680  1.1029  0.8733  0.8733  0.6726  0.6726  0.5664
  0.5664  0.4276  0.5011  0.5011

 Free energy of the ion-electron system (eV)
  ---------------------------------------------------
  alpha Z        PSCENC =      2580.95227926
  Ewald energy   TEWEN  =    -67508.42628814
  -Hartree energ DENC   =    -35944.14123928
  -exchange      EXHF   =         0.00000000
  -V(xc)+E(xc)   XCENC  =      4397.36945000
  PAW double counting   =    108730.28426374  -112346.80202445
  entropy T*S    EENTRO =        -0.00000000
[...]
   0.520E-02 -.255E-03 0.113E-03   -.480E-02 0.244E-03 -.508E-05   -.552E-03 0.408E-04 -.166E-03   0.453E-08 0.712E-06 0.186E-06
   0.113E-01 -.270E-02 0.263E-03   -.100E-01 0.284E-02 -.330E-03   -.169E-02 -.188E-03 0.890E-04   -.834E-06 0.559E-06 0.852E-06
   -.516E-02 -.203E-03 0.103E-03   0.480E-02 0.239E-03 -.244E-04   0.497E-03 -.491E-04 -.118E-03   0.400E-05 0.232E-05 0.137E-05
   -.190E+00 -.171E+00 -.125E-02   0.178E+00 0.157E+00 0.731E-03   0.165E-01 0.220E-01 -.372E-03   0.404E-05 0.284E-05 0.506E-06
   0.166E-01 -.174E-02 -.114E-03   -.163E-01 0.181E-02 -.625E-06   -.369E-03 -.800E-04 0.155E-03   0.359E-05 0.714E-06 -.388E-06
   0.192E+00 -.172E+00 -.189E-02   -.178E+00 0.157E+00 0.158E-02   -.198E-01 0.230E-01 -.132E-02   -.170E-05 0.424E-05 0.470E-05
   -.165E-01 -.169E-02 -.526E-04   0.163E-01 0.180E-02 0.267E-04   0.317E-03 -.190E-03 0.602E-04   -.352E-05 -.401E-06 0.630E-06
   0.528E-03 -.545E-01 0.790E-03   -.514E-03 0.518E-01 -.624E-03   0.958E-04 0.402E-02 -.698E-03   0.426E-06 0.133E-05 0.426E-06
   -.225E-03 -.125E-01 0.120E-03   0.158E-03 0.119E-01 -.103E-03   0.120E-03 0.858E-03 -.953E-04   -.225E-05 0.842E-06 -.169E-05
   -.248E-02 0.125E+00 -.369E-02   0.268E-02 -.120E+00 0.329E-02   -.535E-03 -.777E-02 0.130E-02   0.159E-06 -.213E-05 -.663E-06
   0.279E-03 0.141E-01 -.182E-03   -.230E-03 -.136E-01 0.130E-03   -.895E-04 -.798E-03 0.141E-03   -.198E-05 0.160E-05 -.228E-07
   -.674E-03 -.544E-01 0.698E-03   0.500E-03 0.517E-01 -.610E-03   0.358E-03 0.413E-02 -.574E-03   0.161E-05 0.108E-05 -.541E-06
   0.226E-03 -.125E-01 0.109E-03   -.153E-03 0.119E-01 -.102E-03   -.827E-04 0.948E-03 -.919E-04   -.274E-05 -.905E-06 -.830E-06
   0.285E-02 0.124E+00 -.340E-02   -.259E-02 -.119E+00 0.319E-02   -.573E-03 -.790E-02 0.134E-02   0.279E-05 -.504E-05 -.475E-05
   -.200E-03 0.141E-01 -.163E-03   0.224E-03 -.135E-01 0.128E-03   -.534E-04 -.853E-03 0.124E-03   0.150E-05 -.289E-05 -.623E-06
   0.112E-01 -.279E-02 0.254E-03   -.100E-01 0.287E-02 -.169E-03   -.158E-02 -.134E-03 -.134E-03   -.457E-06 -.350E-06 0.128E-05
   -.510E-02 -.228E-03 -.116E-03   0.476E-02 0.241E-03 -.497E-05   0.457E-03 -.296E-05 0.184E-03   0.440E-05 0.363E-06 -.802E-06
   -.113E-01 -.266E-02 0.138E-03   0.100E-01 0.285E-02 -.332E-03   0.183E-02 -.289E-03 0.270E-03   -.314E-05 0.205E-06 0.892E-06
   0.518E-02 -.225E-03 -.372E-04   -.476E-02 0.236E-03 -.242E-04   -.572E-03 0.317E-05 0.892E-04   -.115E-05 -.321E-05 0.320E-05
   0.191E+00 -.174E+00 -.502E-03   -.179E+00 0.160E+00 0.742E-03   -.171E-01 0.229E-01 0.102E-02   -.593E-05 0.790E-06 -.128E-05
   -.164E-01 -.180E-02 0.723E-04   0.161E-01 0.178E-02 -.690E-06   0.323E-03 0.266E-04 -.102E-03   -.287E-05 -.243E-05 0.192E-05
   -.192E+00 -.174E+00 -.148E-02   0.179E+00 0.160E+00 0.160E-02   0.188E-01 0.228E-01 0.136E-02   0.376E-05 0.106E-05 -.143E-05
   0.164E-01 -.157E-02 0.556E-04   -.161E-01 0.177E-02 0.263E-04   -.419E-03 -.294E-03 -.136E-03   0.135E-05 0.213E-05 -.185E-05
   -.288E-03 -.546E-01 0.484E-03   0.513E-03 0.520E-01 -.627E-03   -.325E-03 0.388E-02 0.632E-03   0.345E-05 0.479E-05 -.295E-05
   0.139E-03 -.124E-01 0.109E-03   -.156E-03 0.118E-01 -.102E-03   0.279E-04 0.927E-03 0.613E-04   -.153E-05 -.310E-06 0.243E-05
   0.375E-02 0.126E+00 -.436E-02   -.269E-02 -.121E+00 0.333E-02   -.160E-02 -.807E-02 0.789E-03   -.915E-06 -.133E-05 0.146E-05
   -.249E-03 0.140E-01 -.183E-03   0.228E-03 -.135E-01 0.129E-03   0.268E-04 -.828E-03 0.177E-04   -.154E-05 0.415E-05 -.312E-05
   0.439E-03 -.547E-01 0.557E-03   -.499E-03 0.519E-01 -.613E-03   0.783E-04 0.426E-02 0.517E-03   0.866E-06 0.313E-05 -.118E-05
   -.186E-04 -.124E-01 0.554E-04   0.152E-03 0.118E-01 -.101E-03   -.193E-03 0.862E-03 0.145E-03   0.154E-06 0.154E-05 -.238E-05
   -.300E-02 0.125E+00 -.293E-02   0.260E-02 -.120E+00 0.323E-02   0.592E-03 -.784E-02 -.133E-02   0.131E-05 -.307E-05 0.288E-05
   0.246E-03 0.140E-01 0.777E-05   -.221E-03 -.135E-01 0.127E-03   -.220E-04 -.813E-03 -.261E-03   -.159E-05 -.342E-05 0.175E-05
 -----------------------------------------------------------------------------------------------
   0.191E-01 -.102E+00 -.438E-02   -.634E-12 0.758E-13 0.597E-13   -.191E-01 0.102E+00 0.438E-02   -.569E-05 0.635E-05 0.283E-05
 
 
 POSITION                                       TOTAL-FORCE (eV/Angst)
 -----------------------------------------------------------------------------------
      1.92590      3.13932      5.36004        -0.000061      0.004736      0.000347
      9.61372      3.13932      5.36004         0.000010     -0.000055     -0.000055
      1.92590      8.76310      5.40133        -0.000061     -0.004471      0.000522
      9.61372      8.76310      5.40133         0.000003     -0.000068     -0.000071
      1.92590      3.18168     10.98368         0.000001      0.000221      0.000143
      9.61372      3.18168     10.98368         0.000011     -0.000045     -0.000056
      1.92590      8.80547     11.02497         0.000034     -0.000098     -0.000342
      9.61372      8.80547     11.02497         0.000008     -0.000078     -0.000066
      1.92590      5.35991      3.13736        -0.000391      0.002506      0.000104
      9.61372      5.35991      3.13736         0.000002      0.000106      0.000060
      1.92590     10.98369      3.17866        -0.000104     -0.000816     -0.000027
      9.61372     10.98369      3.17866        -0.000001      0.000013      0.000060
      1.92590      5.40227      8.76100        -0.000105      0.001552      0.000365
      9.61372      5.40227      8.76100         0.000023      0.000115      0.000064
      1.92590     11.02606      8.80230         0.000108     -0.001004      0.000100
      9.61372     11.02606      8.80230         0.000019      0.000009      0.000062
      5.76192      2.52683      0.30490         0.000084      0.000001      0.000071
     13.44973      2.52683      0.30490        -0.000087      0.000007     -0.000015
      5.76192      8.15062      0.34619        -0.000092      0.000131      0.000115
     13.44973      8.15062      0.34619         0.000081      0.000112      0.000072
      5.76192      2.56920      5.92854         0.000965     -0.000070      0.000071
     13.44973      2.56920      5.92854        -0.000914     -0.000089      0.000191
      5.76192      8.19298      5.96983        -0.001004      0.000251     -0.000044
     13.44973      8.19298      5.96983         0.001036      0.000292      0.000017
      5.76192      0.30624      2.52757         0.000037     -0.000262     -0.000078
     13.44973      0.30624      2.52757         0.000023     -0.000289     -0.000053
      5.76192      5.93003      2.56887        -0.000026      0.000151     -0.000006
     13.44973      5.93003      2.56887        -0.000067      0.000159     -0.000107
      5.76192      0.34861      8.15121        -0.000052     -0.000307     -0.000082
     13.44973      0.34861      8.15121        -0.000087     -0.000262     -0.000069
      5.76192      5.97239      8.19250         0.000019      0.000180     -0.000074
     13.44973      5.97239      8.19250         0.000189      0.000179     -0.000036
      4.24371      4.24961      4.24870         0.002520      0.000267     -0.001503
     11.93153      4.24961      4.24870        -0.000078      0.000128      0.000097
      4.24371      9.87340      4.29000        -0.000157     -0.000958      0.000494
     11.93153      9.87340      4.29000         0.000158     -0.000117     -0.000064
      4.24371      4.29198      9.87234         0.000245      0.000296      0.000203
     11.93153      4.29198      9.87234         0.000020      0.000131      0.000046
      4.24371      9.91576      9.91363        -0.000277     -0.000356     -0.000171
     11.93153      9.91576      9.91363         0.000153     -0.000166     -0.000091
      3.44411      1.41654      1.41623         0.000303     -0.000452     -0.000255
     11.13192      1.41654      1.41623        -0.000142     -0.000123     -0.000057
      3.44411      7.04032      1.45753        -0.000287      0.000444      0.000200
     11.13192      7.04032      1.45753         0.000005      0.000108      0.000024
      3.44411      1.45890      7.03987         0.000019     -0.001095      0.000397
     11.13192      1.45890      7.03987        -0.000052     -0.000102     -0.000050
      3.44411      7.08269      7.08117         0.001424      0.003885      0.001162
     11.13192      7.08269      7.08117        -0.000060      0.000129      0.000095
      7.68691      4.22843      1.43688         0.000143      0.000119     -0.000041
     15.37473      4.22843      1.43688        -0.000154      0.000316     -0.000256
      7.68691      9.85222      1.47818        -0.000023     -0.000150      0.000076
     15.37473      9.85222      1.47818         0.000440     -0.000416      0.000221
      7.68691      4.27079      7.06052         0.000118      0.000127     -0.000105
     15.37473      4.27079      7.06052        -0.001501      0.001053      0.001602
      7.68691      9.89458      7.10182         0.000041     -0.000109      0.000072
     15.37473      9.89458      7.10182         0.000219     -0.001177     -0.000420
      0.00091      1.43772      4.22805        -0.000260     -0.000953     -0.000440
      7.68873      1.43772      4.22805        -0.000046     -0.000113      0.000071
      0.00091      7.06151      4.26935         0.001334      0.001199      0.001352
      7.68873      7.06151      4.26935        -0.000097      0.000148     -0.000128
      0.00091      1.48008      9.85169        -0.000479     -0.000411      0.000221
      7.68873      1.48008      9.85169         0.000032     -0.000158      0.000090
      0.00091      7.10387      9.89299         0.000152      0.000341     -0.000320
      7.68873      7.10387      9.89299        -0.000130      0.000133     -0.000045
      7.36691      4.24961      4.24870         0.000142      0.000212      0.000149
     15.05473      4.24961      4.24870        -0.003371      0.001899     -0.002996
      7.36691      9.87340      4.29000        -0.000040     -0.000221     -0.000191
     15.05473      9.87340      4.29000         0.000556     -0.002344      0.001695
      7.36691      4.29198      9.87234         0.000226      0.000319      0.000099
     15.05473      4.29198      9.87234        -0.000297      0.000894     -0.000049
      7.36691      9.91576      9.91363        -0.000039     -0.000284     -0.000043
     15.05473      9.91576      9.91363         0.000507     -0.000849     -0.000060
      0.32090      1.41654      1.41623        -0.000741     -0.000907     -0.000132
      8.00872      1.41654      1.41623         0.000033     -0.000245     -0.000010
      0.32090      7.04032      1.45753         0.000442      0.001056      0.000150
      8.00872      7.04032      1.45753        -0.000203      0.000282      0.000054
      0.32090      1.45890      7.03987        -0.000273     -0.002450      0.001342
      8.00872      1.45890      7.03987         0.000026     -0.000224     -0.000143
      0.32090      7.08269      7.08117        -0.002350      0.008348      0.002667
      8.00872      7.08269      7.08117        -0.000073      0.000229      0.000116
      3.84445      4.22843      1.43688         0.000360      0.000709     -0.000255
     11.53226      4.22843      1.43688        -0.000186      0.000298     -0.000096
      3.84445      9.85222      1.47818        -0.000607     -0.000896      0.000088
     11.53226      9.85222      1.47818         0.000069     -0.000268      0.000036
      3.84445      4.27079      7.06052         0.001765      0.003758      0.001866
     11.53226      4.27079      7.06052        -0.000100      0.000174     -0.000105
      3.84445      9.89458      7.10182        -0.000399     -0.002420     -0.001424
     11.53226      9.89458      7.10182         0.000072     -0.000212      0.000170
      3.84337      1.43772      4.22805         0.000438     -0.002343     -0.001513
     11.53119      1.43772      4.22805        -0.000000     -0.000254      0.000190
      3.84337      7.06151      4.26935        -0.001046      0.004232      0.001884
     11.53119      7.06151      4.26935         0.000085      0.000287     -0.000187
      3.84337      1.48008      9.85169         0.000652     -0.000906      0.000115
     11.53119      1.48008      9.85169        -0.000022     -0.000273      0.000030
      3.84337      7.10387      9.89299        -0.000480      0.000997     -0.000191
     11.53119      7.10387      9.89299         0.000217      0.000316     -0.000083
      1.92917      5.67160      5.66036         0.003100     -0.052137     -0.007542
      9.61699      5.66160      5.66028        -0.000005     -0.000030     -0.000013
      1.92917     11.28539      5.70158        -0.000001      0.002036      0.000018
      9.61699     11.28539      5.70158        -0.000025      0.000086     -0.000017
      1.92917      5.70397     11.28392         0.000044     -0.000719      0.000038
      9.61699      5.70397     11.28392        -0.000029     -0.000127     -0.000015
      1.92917     11.32775     11.32522        -0.000040      0.001287     -0.000020
      9.61699     11.32775     11.32522        -0.000023      0.000140     -0.000014
      1.92917      2.83762      2.83712        -0.000015      0.002282      0.003038
      9.61699      2.83762      2.83712         0.000016     -0.000004     -0.000011
      1.92917      8.46141      2.87841        -0.000153      0.002326     -0.003422
      9.61699      8.46141      2.87841         0.000024     -0.000034      0.000046
      1.92917      2.87999      8.46076         0.000168      0.002400     -0.003392
      9.61699      2.87999      8.46076        -0.000076      0.000001      0.000046
      1.92917      8.50377      8.50205         0.000265      0.002472      0.003527
      9.61699      8.50377      8.50205        -0.000060     -0.000028     -0.000023
      5.75865      0.00455      0.00465         0.000006      0.000339     -0.000012
     13.44647      0.00455      0.00465        -0.000001      0.000322      0.000040
      5.75865      5.62833      0.04594        -0.000008     -0.000331     -0.000015
     13.44647      5.62833      0.04594        -0.000015     -0.000313      0.000118
      5.75865      0.04691      5.62829         0.000005      0.001321     -0.000027
     13.44647      0.04691      5.62829        -0.000035      0.001313      0.000106
      5.75865      5.67070      5.66958        -0.000149     -0.001746      0.000182
     13.44647      5.67070      5.66958         0.000128     -0.001764     -0.000278
      5.75865      2.82853      2.82782        -0.000480     -0.000012      0.000298
     13.44647      2.82853      2.82782         0.000807      0.000090      0.000274
      5.75865      8.45231      2.86911         0.000788      0.000090     -0.000319
     13.44647      8.45231      2.86911        -0.000521     -0.000040     -0.000373
      5.75865      2.87089      8.45146        -0.000803      0.000095     -0.000350
     13.44647      2.87089      8.45146         0.000495     -0.000037     -0.000306
      5.75865      8.49468      8.49275         0.000533     -0.000015      0.000300
     13.44647      8.49468      8.49275        -0.000753      0.000085      0.000273
      0.00000      2.81189      0.02065         0.000473     -0.000139      0.000041
      7.68782      2.81189      0.02065        -0.000157      0.000031     -0.000058
      0.00000      8.43568      0.06194        -0.000461     -0.000053      0.000022
      7.68782      8.43568      0.06194         0.000138     -0.000011     -0.000039
      0.00000      2.85426      5.64429         0.005054      0.007935     -0.000894
      7.68782      2.85426      5.64429        -0.000080     -0.000012      0.000040
      0.00000      8.47804      5.68558        -0.006503      0.008534     -0.001628
      7.68782      8.47804      5.68558         0.000071     -0.000078      0.000035
      0.00000      0.02118      2.81182         0.000110      0.001398     -0.000531
      7.68782      0.02118      2.81182         0.000050      0.000279     -0.000080
      0.00000      5.64497      2.85311        -0.000339     -0.002780      0.000906
      7.68782      5.64497      2.85311        -0.000043     -0.000258      0.000089
      0.00000      0.06355      8.43546         0.000186      0.001411     -0.000487
      7.68782      0.06355      8.43546        -0.000013      0.000313     -0.000086
      0.00000      5.68733      8.47675        -0.000317     -0.002952      0.001126
      7.68782      5.68733      8.47675        -0.000028     -0.000277      0.000088
      3.84391      2.81189      0.02065        -0.000432     -0.000046     -0.000047
     11.53173      2.81189      0.02065         0.000127      0.000010      0.000062
      3.84391      8.43568      0.06194         0.000497     -0.000093      0.000077
     11.53173      8.43568      0.06194        -0.000159      0.000011      0.000031
      3.84391      2.85426      5.64429        -0.005408      0.008362      0.001262
     11.53173      2.85426      5.64429         0.000072      0.000004     -0.000028
      3.84391      8.47804      5.68558         0.005984      0.008288      0.001478
     11.53173      8.47804      5.68558        -0.000093     -0.000093     -0.000056
      3.84391      0.02118      2.81182        -0.000097      0.001342      0.000486
     11.53173      0.02118      2.81182         0.000009      0.000300      0.000071
      3.84391      5.64497      2.85311        -0.000542     -0.002838     -0.000236
     11.53173      5.64497      2.85311         0.000005     -0.000259     -0.000040
      3.84391      0.06355      8.43546         0.000019      0.001443      0.000460
     11.53173      0.06355      8.43546        -0.000059      0.000284      0.000097
      3.84391      5.68733      8.47675         0.000200     -0.002825     -0.001026
     11.53173      5.68733      8.47675         0.000001     -0.000268     -0.000125
 -----------------------------------------------------------------------------------
    total drift:                               -0.000000      0.000007      0.000001


--------------------------------------------------------------------------------------------------------



  FREE ENERGIE OF THE ION-ELECTRON SYSTEM (eV)
  ---------------------------------------------------
  free  energy   TOTEN  =      -822.06174225 eV

  energy  without entropy=     -822.06174225  energy(sigma->0) =     -822.06174225
 


--------------------------------------------------------------------------------------------------------


    POTLOK:  cpu time    2.3364: real time    2.4013


--------------------------------------------------------------------------------------------------------


     LOOP+:  cpu time13504.4027: real time13728.7406
    4ORBIT:  cpu time    0.0000: real time    0.0000

 total amount of memory used by VASP MPI-rank0   985864. kBytes
=======================================================================

   base      :      30000. kBytes
   nonl-proj :     102069. kBytes
   fftplans  :      64934. kBytes
   grid      :      55554. kBytes
   one-center:        839. kBytes
   wavefun   :     732468. kBytes
 
  
  
 General timing and accounting informations for this job:
 ========================================================
  
                  Total CPU time used (sec):    13645.759
                            User time (sec):    13563.774
                          System time (sec):       81.985
                         Elapsed time (sec):    13873.660
  
                   Maximum memory used (kb):     1177996.
                   Average memory used (kb):           0.
  
                          Minor page faults:       746937
                          Major page faults:           28
                 Voluntary context switches:        83505
