<?xml version="1.0" encoding="ISO-8859-1"?>
<modeling>
 <generator>
  <i name="program" type="string">vasp </i>
  <i name="version" type="string">5.4.4.18Apr17-6-g9f103f2a35  </i>
  <i name="subversion" type="string">(build Oct 25 2017 14:42:18) complex            parallel </i>
  <i name="platform" type="string">LinuxIFC </i>
  <i name="date" type="string">2021 06 16 </i>
  <i name="time" type="string">22:23:56 </i>
 </generator>
 <incar>
  <i type="string" name="PREC">accurate</i>
  <i type="string" name="ALGO"> normal</i>
  <i type="logical" name="ADDGRID"> T  </i>
  <i type="int" name="ISPIN">     2</i>
  <i type="int" name="ICHARG">     1</i>
  <i type="int" name="NELM">   200</i>
  <i type="int" name="NELMIN">     8</i>
  <i name="EDIFF">      0.00000001</i>
  <i type="int" name="ISYM">     2</i>
  <i name="ENCUT">    650.00000000</i>
  <v name="MAGMOM">      0.60000000      0.60000000      0.60000000      0.60000000      0.60000000      0.60000000      0.60000000      0.60000000      0.60000000      0.60000000      0.60000000      0.60000000      0.60000000      0.60000000      0.60000000      0.60000000      0.60000000      0.60000000      0.60000000      0.60000000
      0.60000000      0.60000000      0.60000000      0.60000000      0.60000000      0.60000000      0.60000000      0.60000000      0.60000000      0.60000000      0.60000000      0.60000000      0.60000000      0.60000000      0.60000000      0.60000000      0.60000000      0.60000000      0.60000000      0.60000000
      0.60000000      0.60000000      0.60000000      0.60000000      0.60000000      0.60000000      0.60000000      0.60000000      0.60000000      0.60000000      0.60000000      0.60000000      0.60000000      0.60000000      0.60000000      0.60000000      0.60000000      0.60000000      0.60000000      0.60000000
      0.60000000      0.60000000      0.60000000      0.60000000      5.00000000      5.00000000      5.00000000      5.00000000      5.00000000      5.00000000      5.00000000      5.00000000      5.00000000      5.00000000      5.00000000      5.00000000      5.00000000      5.00000000      5.00000000      5.00000000
      5.00000000      5.00000000      5.00000000      5.00000000      5.00000000      5.00000000      5.00000000      5.00000000      5.00000000      5.00000000      5.00000000      5.00000000      5.00000000      5.00000000      5.00000000      5.00000000      0.60000000      0.60000000      0.60000000      0.60000000
      0.60000000      0.60000000      0.60000000      0.60000000      0.60000000      0.60000000      0.60000000      0.60000000      0.60000000      0.60000000      0.60000000      0.60000000      0.60000000      0.60000000      0.60000000      0.60000000      0.60000000      0.60000000      0.60000000      0.60000000
      0.60000000      0.60000000      0.60000000      0.60000000      0.60000000      0.60000000      0.60000000      0.60000000      0.60000000      0.60000000      0.60000000      0.60000000      0.60000000      0.60000000      0.60000000      0.60000000      0.60000000      0.60000000      0.60000000      0.60000000
      0.60000000      0.60000000      0.60000000      0.60000000      0.60000000      0.60000000      0.60000000      0.60000000      0.60000000      0.60000000      0.60000000      0.60000000      0.60000000      0.60000000      0.60000000      0.60000000      0.60000000      0.60000000      0.60000000      0.60000000
</v>
  <i type="logical" name="LREAL"> F  </i>
  <i type="int" name="ISMEAR">     0</i>
  <i name="SIGMA">      0.05000000</i>
  <i type="int" name="NWRITE">     1</i>
  <i type="int" name="LMAXMIX">     4</i>
  <i type="logical" name="LWAVE"> F  </i>
  <i type="logical" name="LASPH"> T  </i>
  <v type="int" name="KPOINT_BSE">    -1     0     0     0</v>
  <i type="int" name="NELM">   200</i>
  <i type="string" name="GGA"> pe</i>
  <i type="logical" name="LDAU"> T  </i>
  <v type="int" name="LDAUTYPE">     2</v>
  <v type="int" name="LDAUL">    -1     2    -1    -1</v>
  <v name="LDAUU">      0.00000000      4.00000000      0.00000000      0.00000000</v>
  <v name="LDAUJ">      0.00000000      0.00000000      0.00000000      0.00000000</v>
  <i type="logical" name="LASPH"> T  </i>
 </incar>
 <structure name="primitive_cell" >
  <crystal>
   <varray name="basis" >
    <v>      15.37563712       0.00000000       0.00000000 </v>
    <v>       0.00000000      11.24757084       0.08259006 </v>
    <v>       0.00000000       0.08472870      11.24727794 </v>
   </varray>
   <i name="volume">   1944.98054282 </i>
   <varray name="rec_basis" >
    <v>       0.06503796       0.00000000       0.00000000 </v>
    <v>       0.00000000       0.08891300      -0.00066981 </v>
    <v>       0.00000000      -0.00065290       0.08891532 </v>
   </varray>
  </crystal>
  <varray name="positions" >
   <v>       0.12525680       0.27553588       0.47453981 </v>
   <v>       0.25000000       0.25000000      -0.50000000 </v>
   <v>       0.00000000       0.25000000      -0.50000000 </v>
   <v>       0.12546906       0.25040119       0.25041044 </v>
   <v>       0.12546906      -0.49951213       0.49958956 </v>
   <v>      -0.02087095       0.37500000       0.37500000 </v>
   <v>       0.27600236       0.37500000       0.37500000 </v>
   <v>       0.25003486       0.37500000      -0.37500000 </v>
   <v>       0.24996514       0.12500000       0.37500000 </v>
   <v>       0.00005928       0.12500000       0.37500000 </v>
   <v>      -0.00005928       0.37500000      -0.37500000 </v>
   <v>       0.22399764       0.12500000      -0.37500000 </v>
   <v>       0.02087095       0.12500000      -0.37500000 </v>
   <v>       0.12546906       0.25040119      -0.24958956 </v>
   <v>       0.12546906      -0.00040119       0.49958956 </v>
   <v>       0.12525680       0.47446412       0.27546019 </v>
   <v>       0.37474320       0.22446412      -0.47453981 </v>
   <v>      -0.12525680       0.22446412      -0.47453981 </v>
   <v>       0.25000000      -0.50000000       0.25000000 </v>
   <v>       0.00000000      -0.50000000       0.25000000 </v>
   <v>       0.12525680       0.47446412      -0.22453981 </v>
   <v>       0.12525680      -0.02553588       0.27546019 </v>
   <v>       0.25000000      -0.50000000      -0.25000000 </v>
   <v>       0.25000000       0.00000000       0.25000000 </v>
   <v>       0.00000000      -0.50000000      -0.25000000 </v>
   <v>       0.00000000       0.00000000       0.25000000 </v>
   <v>       0.24996514      -0.37500000       0.37500000 </v>
   <v>       0.25003486       0.37500000       0.12500000 </v>
   <v>       0.00005928      -0.37500000       0.37500000 </v>
   <v>      -0.00005928       0.37500000       0.12500000 </v>
   <v>       0.22399764      -0.37500000      -0.37500000 </v>
   <v>       0.22399764       0.12500000       0.12500000 </v>
   <v>       0.02087095      -0.37500000      -0.37500000 </v>
   <v>       0.02087095       0.12500000       0.12500000 </v>
   <v>       0.37453094      -0.49959881      -0.49958956 </v>
   <v>       0.37453094       0.24959881       0.24958956 </v>
   <v>      -0.12546906      -0.49959881      -0.49958956 </v>
   <v>      -0.12546906       0.24959881       0.24958956 </v>
   <v>       0.12525680      -0.02553588      -0.22453981 </v>
   <v>       0.25000000       0.00000000      -0.25000000 </v>
   <v>       0.00000000       0.00000000      -0.25000000 </v>
   <v>       0.37453094       0.24959881      -0.25041044 </v>
   <v>       0.37453094       0.00040119      -0.49958956 </v>
   <v>      -0.12546906       0.24959881      -0.25041044 </v>
   <v>      -0.12546906       0.00040119      -0.49958956 </v>
   <v>       0.24996514       0.12500000      -0.12500000 </v>
   <v>       0.25003486      -0.12500000      -0.37500000 </v>
   <v>       0.00005928       0.12500000      -0.12500000 </v>
   <v>      -0.00005928      -0.12500000      -0.37500000 </v>
   <v>      -0.02087095       0.37500000      -0.12500000 </v>
   <v>      -0.02087095      -0.12500000       0.37500000 </v>
   <v>       0.27600236       0.37500000      -0.12500000 </v>
   <v>       0.27600236      -0.12500000       0.37500000 </v>
   <v>       0.37474320      -0.47446412       0.22453981 </v>
   <v>       0.37474320       0.02553588      -0.27546019 </v>
   <v>      -0.12525680      -0.47446412       0.22453981 </v>
   <v>      -0.12525680       0.02553588      -0.27546019 </v>
   <v>       0.37474320       0.02553588       0.22453981 </v>
   <v>       0.37474320      -0.47446412      -0.27546019 </v>
   <v>      -0.12525680       0.02553588       0.22453981 </v>
   <v>      -0.12525680      -0.47446412      -0.27546019 </v>
   <v>      -0.22399764       0.37500000       0.37500000 </v>
   <v>       0.12525680       0.27553588      -0.02546019 </v>
   <v>       0.12525680      -0.22446412       0.47453981 </v>
   <v>       0.47912905       0.37500000       0.37500000 </v>
   <v>       0.25000000      -0.25000000      -0.50000000 </v>
   <v>       0.25000000       0.25000000       0.00000000 </v>
   <v>       0.00000000      -0.25000000      -0.50000000 </v>
   <v>       0.00000000       0.25000000       0.00000000 </v>
   <v>       0.22399764      -0.37500000       0.12500000 </v>
   <v>       0.02087095      -0.37500000       0.12500000 </v>
   <v>      -0.50000000       0.25000000      -0.50000000 </v>
   <v>      -0.25000000       0.25000000      -0.50000000 </v>
   <v>       0.12546906      -0.24959881       0.25041044 </v>
   <v>       0.12546906       0.49959881      -0.00041044 </v>
   <v>       0.49994072       0.37500000      -0.37500000 </v>
   <v>      -0.49994072       0.12500000       0.37500000 </v>
   <v>      -0.24996514       0.37500000      -0.37500000 </v>
   <v>      -0.25003486       0.12500000       0.37500000 </v>
   <v>       0.12546906      -0.24959881      -0.24958956 </v>
   <v>       0.12546906      -0.00040119      -0.00041044 </v>
   <v>       0.24996514      -0.37500000      -0.12500000 </v>
   <v>       0.25003486      -0.12500000       0.12500000 </v>
   <v>       0.00005928      -0.37500000      -0.12500000 </v>
   <v>      -0.00005928      -0.12500000       0.12500000 </v>
   <v>       0.37474320      -0.27553588      -0.47453981 </v>
   <v>       0.37474320       0.22446412       0.02546019 </v>
   <v>      -0.12525680      -0.27553588      -0.47453981 </v>
   <v>      -0.12525680       0.22446412       0.02546019 </v>
   <v>      -0.47912905       0.12500000      -0.37500000 </v>
   <v>      -0.27600236       0.12500000      -0.37500000 </v>
   <v>      -0.02087095      -0.12500000      -0.12500000 </v>
   <v>       0.27600236      -0.12500000      -0.12500000 </v>
   <v>      -0.50000000      -0.50000000       0.25000000 </v>
   <v>      -0.25000000      -0.50000000       0.25000000 </v>
   <v>       0.37453094      -0.25040119       0.24958956 </v>
   <v>       0.37453094      -0.49959881       0.00041044 </v>
   <v>      -0.12546906      -0.25040119       0.24958956 </v>
   <v>      -0.12546906      -0.49959881       0.00041044 </v>
   <v>      -0.50000000      -0.50000000      -0.25000000 </v>
   <v>      -0.50000000       0.00000000       0.25000000 </v>
   <v>      -0.25000000      -0.50000000      -0.25000000 </v>
   <v>      -0.25000000       0.00000000       0.25000000 </v>
   <v>       0.49994072       0.37500000       0.12500000 </v>
   <v>      -0.49994072      -0.37500000       0.37500000 </v>
   <v>      -0.24996514       0.37500000       0.12500000 </v>
   <v>      -0.25003486      -0.37500000       0.37500000 </v>
   <v>      -0.22399764       0.37500000      -0.12500000 </v>
   <v>      -0.22399764      -0.12500000       0.37500000 </v>
   <v>       0.47912905       0.37500000      -0.12500000 </v>
   <v>       0.47912905      -0.12500000       0.37500000 </v>
   <v>      -0.50000000       0.00000000      -0.25000000 </v>
   <v>      -0.25000000       0.00000000      -0.25000000 </v>
   <v>       0.37453094      -0.25040119      -0.25041044 </v>
   <v>       0.37453094       0.00040119       0.00041044 </v>
   <v>      -0.12546906      -0.25040119      -0.25041044 </v>
   <v>      -0.12546906       0.00040119       0.00041044 </v>
   <v>      -0.47912905      -0.37500000      -0.37500000 </v>
   <v>      -0.47912905       0.12500000       0.12500000 </v>
   <v>       0.49994072      -0.12500000      -0.37500000 </v>
   <v>      -0.49994072       0.12500000      -0.12500000 </v>
   <v>      -0.24996514      -0.12500000      -0.37500000 </v>
   <v>      -0.25003486       0.12500000      -0.12500000 </v>
   <v>      -0.27600236      -0.37500000      -0.37500000 </v>
   <v>      -0.27600236       0.12500000       0.12500000 </v>
   <v>      -0.37474320       0.27553588       0.47453981 </v>
   <v>       0.25000000      -0.25000000       0.00000000 </v>
   <v>       0.00000000      -0.25000000       0.00000000 </v>
   <v>      -0.50000000      -0.25000000      -0.50000000 </v>
   <v>      -0.50000000       0.25000000       0.00000000 </v>
   <v>      -0.25000000      -0.25000000      -0.50000000 </v>
   <v>      -0.25000000       0.25000000       0.00000000 </v>
   <v>       0.12525680      -0.22446412      -0.02546019 </v>
   <v>       0.37474320      -0.27553588       0.02546019 </v>
   <v>      -0.12525680      -0.27553588       0.02546019 </v>
   <v>      -0.37453094       0.49959881       0.49958956 </v>
   <v>      -0.37453094       0.25040119       0.25041044 </v>
   <v>      -0.47912905      -0.37500000       0.12500000 </v>
   <v>      -0.27600236      -0.37500000       0.12500000 </v>
   <v>      -0.37453094       0.25040119      -0.24958956 </v>
   <v>      -0.37453094      -0.00040119       0.49958956 </v>
   <v>      -0.22399764      -0.12500000      -0.12500000 </v>
   <v>      -0.37474320       0.47446412       0.27546019 </v>
   <v>       0.49994072      -0.12500000       0.12500000 </v>
   <v>      -0.49994072      -0.37500000      -0.12500000 </v>
   <v>      -0.25003486      -0.37500000      -0.12500000 </v>
   <v>      -0.24996514      -0.12500000       0.12500000 </v>
   <v>       0.47912905      -0.12500000      -0.12500000 </v>
   <v>      -0.37474320       0.47446412      -0.22453981 </v>
   <v>      -0.37474320      -0.02553588       0.27546019 </v>
   <v>      -0.37474320      -0.02553588      -0.22453981 </v>
   <v>      -0.50000000      -0.25000000       0.00000000 </v>
   <v>      -0.25000000      -0.25000000       0.00000000 </v>
   <v>      -0.37474320       0.27553588      -0.02546019 </v>
   <v>      -0.37474320      -0.22446412       0.47453981 </v>
   <v>      -0.37453094      -0.24959881       0.25041044 </v>
   <v>      -0.37453094       0.49959881      -0.00041044 </v>
   <v>      -0.37453094      -0.24959881      -0.24958956 </v>
   <v>      -0.37453094      -0.00040119      -0.00041044 </v>
   <v>      -0.37474320      -0.22446412      -0.02546019 </v>
  </varray>
 </structure>
 <varray name="primitive_index" >
  <v type="int" >        1 </v>
  <v type="int" >      149 </v>
  <v type="int" >      133 </v>
  <v type="int" >      105 </v>
  <v type="int" >       97 </v>
  <v type="int" >       66 </v>
  <v type="int" >       33 </v>
  <v type="int" >       85 </v>
  <v type="int" >       89 </v>
  <v type="int" >       57 </v>
  <v type="int" >       54 </v>
  <v type="int" >       45 </v>
  <v type="int" >       77 </v>
  <v type="int" >      109 </v>
  <v type="int" >       99 </v>
  <v type="int" >        9 </v>
  <v type="int" >       21 </v>
  <v type="int" >       22 </v>
  <v type="int" >      155 </v>
  <v type="int" >      139 </v>
  <v type="int" >       13 </v>
  <v type="int" >       11 </v>
  <v type="int" >      159 </v>
  <v type="int" >      153 </v>
  <v type="int" >      143 </v>
  <v type="int" >      137 </v>
  <v type="int" >       91 </v>
  <v type="int" >       81 </v>
  <v type="int" >       59 </v>
  <v type="int" >       50 </v>
  <v type="int" >       47 </v>
  <v type="int" >       41 </v>
  <v type="int" >       79 </v>
  <v type="int" >       73 </v>
  <v type="int" >      119 </v>
  <v type="int" >      121 </v>
  <v type="int" >      120 </v>
  <v type="int" >      122 </v>
  <v type="int" >       15 </v>
  <v type="int" >      157 </v>
  <v type="int" >      141 </v>
  <v type="int" >      125 </v>
  <v type="int" >      117 </v>
  <v type="int" >      126 </v>
  <v type="int" >      118 </v>
  <v type="int" >       93 </v>
  <v type="int" >       87 </v>
  <v type="int" >       61 </v>
  <v type="int" >       56 </v>
  <v type="int" >       70 </v>
  <v type="int" >       68 </v>
  <v type="int" >       37 </v>
  <v type="int" >       35 </v>
  <v type="int" >       27 </v>
  <v type="int" >       29 </v>
  <v type="int" >       28 </v>
  <v type="int" >       30 </v>
  <v type="int" >       25 </v>
  <v type="int" >       31 </v>
  <v type="int" >       26 </v>
  <v type="int" >       32 </v>
  <v type="int" >       34 </v>
  <v type="int" >        5 </v>
  <v type="int" >        3 </v>
  <v type="int" >       65 </v>
  <v type="int" >      151 </v>
  <v type="int" >      145 </v>
  <v type="int" >      135 </v>
  <v type="int" >      129 </v>
  <v type="int" >       43 </v>
  <v type="int" >       75 </v>
  <v type="int" >      134 </v>
  <v type="int" >      150 </v>
  <v type="int" >      107 </v>
  <v type="int" >      101 </v>
  <v type="int" >       53 </v>
  <v type="int" >       58 </v>
  <v type="int" >       86 </v>
  <v type="int" >       90 </v>
  <v type="int" >      111 </v>
  <v type="int" >      103 </v>
  <v type="int" >       95 </v>
  <v type="int" >       83 </v>
  <v type="int" >       63 </v>
  <v type="int" >       52 </v>
  <v type="int" >       23 </v>
  <v type="int" >       17 </v>
  <v type="int" >       24 </v>
  <v type="int" >       18 </v>
  <v type="int" >       78 </v>
  <v type="int" >       46 </v>
  <v type="int" >       72 </v>
  <v type="int" >       39 </v>
  <v type="int" >      140 </v>
  <v type="int" >      156 </v>
  <v type="int" >      123 </v>
  <v type="int" >      115 </v>
  <v type="int" >      124 </v>
  <v type="int" >      116 </v>
  <v type="int" >      144 </v>
  <v type="int" >      138 </v>
  <v type="int" >      160 </v>
  <v type="int" >      154 </v>
  <v type="int" >       49 </v>
  <v type="int" >       60 </v>
  <v type="int" >       82 </v>
  <v type="int" >       92 </v>
  <v type="int" >       38 </v>
  <v type="int" >       36 </v>
  <v type="int" >       69 </v>
  <v type="int" >       67 </v>
  <v type="int" >      142 </v>
  <v type="int" >      158 </v>
  <v type="int" >      127 </v>
  <v type="int" >      113 </v>
  <v type="int" >      128 </v>
  <v type="int" >      114 </v>
  <v type="int" >       80 </v>
  <v type="int" >       74 </v>
  <v type="int" >       55 </v>
  <v type="int" >       62 </v>
  <v type="int" >       88 </v>
  <v type="int" >       94 </v>
  <v type="int" >       48 </v>
  <v type="int" >       42 </v>
  <v type="int" >        2 </v>
  <v type="int" >      147 </v>
  <v type="int" >      131 </v>
  <v type="int" >      136 </v>
  <v type="int" >      130 </v>
  <v type="int" >      152 </v>
  <v type="int" >      146 </v>
  <v type="int" >        7 </v>
  <v type="int" >       19 </v>
  <v type="int" >       20 </v>
  <v type="int" >       98 </v>
  <v type="int" >      106 </v>
  <v type="int" >       76 </v>
  <v type="int" >       44 </v>
  <v type="int" >      110 </v>
  <v type="int" >      100 </v>
  <v type="int" >       40 </v>
  <v type="int" >       10 </v>
  <v type="int" >       51 </v>
  <v type="int" >       64 </v>
  <v type="int" >       96 </v>
  <v type="int" >       84 </v>
  <v type="int" >       71 </v>
  <v type="int" >       14 </v>
  <v type="int" >       12 </v>
  <v type="int" >       16 </v>
  <v type="int" >      132 </v>
  <v type="int" >      148 </v>
  <v type="int" >        6 </v>
  <v type="int" >        4 </v>
  <v type="int" >      108 </v>
  <v type="int" >      102 </v>
  <v type="int" >      112 </v>
  <v type="int" >      104 </v>
  <v type="int" >        8 </v>
 </varray>
 <kpoints>
  <generation param="Gamma">
   <v type="int" name="divisions">       2        3        3 </v>
   <v name="usershift">      0.00000000       0.00000000       0.00000000 </v>
   <v name="genvec1">      0.50000000       0.00000000       0.00000000 </v>
   <v name="genvec2">      0.00000000       0.33333333      -0.00000000 </v>
   <v name="genvec3">      0.00000000      -0.00000000       0.33333333 </v>
   <v name="shift">      0.00000000       0.00000000       0.00000000 </v>
  </generation>
  <varray name="kpointlist" >
   <v>       0.00000000       0.00000000       0.00000000 </v>
   <v>       0.50000000       0.00000000       0.00000000 </v>
   <v>       0.00000000       0.33333333      -0.00000000 </v>
   <v>       0.50000000       0.33333333      -0.00000000 </v>
   <v>       0.00000000      -0.00000000       0.33333333 </v>
   <v>       0.50000000      -0.00000000       0.33333333 </v>
   <v>       0.00000000       0.33333333       0.33333333 </v>
   <v>       0.50000000       0.33333333       0.33333333 </v>
   <v>       0.00000000      -0.33333333       0.33333333 </v>
   <v>       0.50000000      -0.33333333       0.33333333 </v>
  </varray>
  <varray name="weights" >
   <v>       0.05555556 </v>
   <v>       0.05555556 </v>
   <v>       0.11111111 </v>
   <v>       0.11111111 </v>
   <v>       0.11111111 </v>
   <v>       0.11111111 </v>
   <v>       0.11111111 </v>
   <v>       0.11111111 </v>
   <v>       0.11111111 </v>
   <v>       0.11111111 </v>
  </varray>
 </kpoints>
 <parameters>
  <separator name="general" >
   <i type="string" name="SYSTEM">unknown system</i>
   <i type="logical" name="LCOMPAT"> F  </i>
  </separator>
  <separator name="electronic" >
   <i type="string" name="PREC">accura</i>
   <i name="ENMAX">    650.00000000</i>
   <i name="ENAUG">    628.94500000</i>
   <i name="EDIFF">      0.00000001</i>
   <i type="int" name="IALGO">    38</i>
   <i type="int" name="IWAVPR">    10</i>
   <i type="int" name="NBANDS">   732</i>
   <i name="NELECT">   1024.00000000</i>
   <i type="int" name="TURBO">     0</i>
   <i type="int" name="IRESTART">     0</i>
   <i type="int" name="NREBOOT">     0</i>
   <i type="int" name="NMIN">     0</i>
   <i name="EREF">      0.00000000</i>
   <separator name="electronic smearing" >
    <i type="int" name="ISMEAR">     0</i>
    <i name="SIGMA">      0.05000000</i>
    <i name="KSPACING">      0.50000000</i>
    <i type="logical" name="KGAMMA"> T  </i>
   </separator>
   <separator name="electronic projectors" >
    <i type="logical" name="LREAL"> F  </i>
    <v name="ROPT">      0.00000000      0.00000000      0.00000000      0.00000000</v>
    <i type="int" name="LMAXPAW">  -100</i>
    <i type="int" name="LMAXMIX">     4</i>
    <i type="logical" name="NLSPLINE"> F  </i>
   </separator>
   <separator name="electronic startup" >
    <i type="int" name="ISTART">     0</i>
    <i type="int" name="ICHARG">     1</i>
    <i type="int" name="INIWAV">     1</i>
   </separator>
   <separator name="electronic spin" >
    <i type="int" name="ISPIN">     2</i>
    <i type="logical" name="LNONCOLLINEAR"> F  </i>
    <v name="MAGMOM">      0.60000000      0.60000000      0.60000000      0.60000000      0.60000000      0.60000000      0.60000000      0.60000000      0.60000000      0.60000000      0.60000000      0.60000000      0.60000000      0.60000000      0.60000000      0.60000000      0.60000000      0.60000000      0.60000000      0.60000000
      0.60000000      0.60000000      0.60000000      0.60000000      0.60000000      0.60000000      0.60000000      0.60000000      0.60000000      0.60000000      0.60000000      0.60000000      0.60000000      0.60000000      0.60000000      0.60000000      0.60000000      0.60000000      0.60000000      0.60000000
      0.60000000      0.60000000      0.60000000      0.60000000      0.60000000      0.60000000      0.60000000      0.60000000      0.60000000      0.60000000      0.60000000      0.60000000      0.60000000      0.60000000      0.60000000      0.60000000      0.60000000      0.60000000      0.60000000      0.60000000
      0.60000000      0.60000000      0.60000000      0.60000000      5.00000000      5.00000000      5.00000000      5.00000000      5.00000000      5.00000000      5.00000000      5.00000000      5.00000000      5.00000000      5.00000000      5.00000000      5.00000000      5.00000000      5.00000000      5.00000000
      5.00000000      5.00000000      5.00000000      5.00000000      5.00000000      5.00000000      5.00000000      5.00000000      5.00000000      5.00000000      5.00000000      5.00000000      5.00000000      5.00000000      5.00000000      5.00000000      0.60000000      0.60000000      0.60000000      0.60000000
      0.60000000      0.60000000      0.60000000      0.60000000      0.60000000      0.60000000      0.60000000      0.60000000      0.60000000      0.60000000      0.60000000      0.60000000      0.60000000      0.60000000      0.60000000      0.60000000      0.60000000      0.60000000      0.60000000      0.60000000
      0.60000000      0.60000000      0.60000000      0.60000000      0.60000000      0.60000000      0.60000000      0.60000000      0.60000000      0.60000000      0.60000000      0.60000000      0.60000000      0.60000000      0.60000000      0.60000000      0.60000000      0.60000000      0.60000000      0.60000000
      0.60000000      0.60000000      0.60000000      0.60000000      0.60000000      0.60000000      0.60000000      0.60000000      0.60000000      0.60000000      0.60000000      0.60000000      0.60000000      0.60000000      0.60000000      0.60000000      0.60000000      0.60000000      0.60000000      0.60000000
</v>
    <i name="NUPDOWN">     -1.00000000</i>
    <i type="logical" name="LSORBIT"> F  </i>
    <v name="SAXIS">      0.00000000      0.00000000      1.00000000</v>
    <i type="logical" name="LSPIRAL"> F  </i>
    <v name="QSPIRAL">      0.00000000      0.00000000      0.00000000</v>
    <i type="logical" name="LZEROZ"> F  </i>
   </separator>
   <separator name="electronic exchange-correlation" >
    <i type="logical" name="LASPH"> T  </i>
    <i type="logical" name="LMETAGGA"> F  </i>
   </separator>
   <separator name="electronic convergence" >
    <i type="int" name="NELM">   200</i>
    <i type="int" name="NELMDL">     0</i>
    <i type="int" name="NELMIN">     8</i>
    <i name="ENINI">    650.00000000</i>
    <separator name="electronic convergence detail" >
     <i type="logical" name="LDIAG"> T  </i>
     <i type="logical" name="LSUBROT"> F  </i>
     <i name="WEIMIN">      0.00000000</i>
     <i name="EBREAK">      0.00000000</i>
     <i name="DEPER">      0.30000000</i>
     <i type="int" name="NRMM">     4</i>
     <i name="TIME">      0.40000000</i>
    </separator>
   </separator>
   <separator name="electronic mixer" >
    <i name="AMIX">      0.40000000</i>
    <i name="BMIX">      1.00000000</i>
    <i name="AMIN">      0.10000000</i>
    <i name="AMIX_MAG">      1.60000000</i>
    <i name="BMIX_MAG">      1.00000000</i>
    <separator name="electronic mixer details" >
     <i type="int" name="IMIX">     4</i>
     <i type="logical" name="MIXFIRST"> F  </i>
     <i type="int" name="MAXMIX">   -45</i>
     <i name="WC">    100.00000000</i>
     <i type="int" name="INIMIX">     1</i>
     <i type="int" name="MIXPRE">     1</i>
     <i type="int" name="MREMOVE">     5</i>
    </separator>
   </separator>
   <separator name="electronic dipolcorrection" >
    <i type="logical" name="LDIPOL"> F  </i>
    <i type="logical" name="LMONO"> F  </i>
    <i type="int" name="IDIPOL">     0</i>
    <i name="EPSILON">      1.00000000</i>
    <v name="DIPOL">   -100.00000000   -100.00000000   -100.00000000</v>
    <i name="EFIELD">      0.00000000</i>
   </separator>
  </separator>
  <separator name="grids" >
   <i type="int" name="NGX">   128</i>
   <i type="int" name="NGY">    96</i>
   <i type="int" name="NGZ">    96</i>
   <i type="int" name="NGXF">   256</i>
   <i type="int" name="NGYF">   192</i>
   <i type="int" name="NGZF">   192</i>
   <i type="logical" name="ADDGRID"> T  </i>
  </separator>
  <separator name="ionic" >
   <i type="int" name="NSW">     0</i>
   <i type="int" name="IBRION">    -1</i>
   <i type="int" name="MDALGO">     0</i>
   <i type="int" name="ISIF">     2</i>
   <i name="PSTRESS">      0.00000000</i>
   <i name="EDIFFG">      0.00000010</i>
   <i type="int" name="NFREE">     0</i>
   <i name="POTIM">      0.50000000</i>
   <i name="SMASS">     -3.00000000</i>
   <i name="SCALEE">      1.00000000</i>
  </separator>
  <separator name="ionic md" >
   <i name="TEBEG">      0.00010000</i>
   <i name="TEEND">      0.00010000</i>
   <i type="int" name="NBLOCK">     1</i>
   <i type="int" name="KBLOCK">     1</i>
   <i type="int" name="NPACO">   256</i>
   <i name="APACO">     16.00000000</i>
  </separator>
  <separator name="symmetry" >
   <i type="int" name="ISYM">     2</i>
   <i name="SYMPREC">      0.00001000</i>
  </separator>
  <separator name="dos" >
   <i type="int" name="LORBIT">     0</i>
   <v name="RWIGS">     -1.00000000     -1.00000000     -1.00000000     -1.00000000</v>
   <i type="int" name="NEDOS">   301</i>
   <i name="EMIN">     10.00000000</i>
   <i name="EMAX">    -10.00000000</i>
   <i name="EFERMI">      0.00000000</i>
  </separator>
  <separator name="writing" >
   <i type="int" name="NWRITE">     1</i>
   <i type="logical" name="LWAVE"> F  </i>
   <i type="logical" name="LDOWNSAMPLE"> F  </i>
   <i type="logical" name="LCHARG"> T  </i>
   <i type="logical" name="LPARD"> F  </i>
   <i type="logical" name="LVTOT"> F  </i>
   <i type="logical" name="LVHAR"> F  </i>
   <i type="logical" name="LELF"> F  </i>
   <i type="logical" name="LOPTICS"> F  </i>
   <v name="STM">      0.00000000      0.00000000      0.00000000      0.00000000      0.00000000      0.00000000      0.00000000</v>
  </separator>
  <separator name="performance" >
   <i type="int" name="NPAR">     4</i>
   <i type="int" name="NSIM">     4</i>
   <i type="int" name="NBLK">    -1</i>
   <i type="logical" name="LPLANE"> T  </i>
   <i type="logical" name="LSCALAPACK"> T  </i>
   <i type="logical" name="LSCAAWARE"> F  </i>
   <i type="logical" name="LSCALU"> F  </i>
   <i type="logical" name="LASYNC"> F  </i>
   <i type="logical" name="LORBITALREAL"> F  </i>
  </separator>
  <separator name="miscellaneous" >
   <i type="int" name="IDIOT">     3</i>
   <i type="int" name="ISPECIAL">     0</i>
   <i type="logical" name="LMUSIC"> F  </i>
   <v name="POMASS">      7.01000000     55.84700000     32.06600000     16.00000000</v>
   <v name="DARWINR">      0.00000000      0.00000000      0.00000000      0.00000000</v>
   <v name="DARWINV">      1.00000000      1.00000000      1.00000000      1.00000000</v>
   <i type="logical" name="LCORR"> T  </i>
  </separator>
  <i type="logical" name="GGA_COMPAT"> T  </i>
  <i type="logical" name="LBERRY"> F  </i>
  <i type="int" name="ICORELEVEL">     0</i>
  <i type="logical" name="LDAU"> T  </i>
  <v type="int" name="LDAUTYPE">     2</v>
  <v type="int" name="LDAUL">    -1</v>
  <v name="LDAUU">      0.00000000</v>
  <v name="LDAUJ">      0.00000000</v>
  <i type="int" name="LDAUPRINT">     0</i>
  <i type="int" name="I_CONSTRAINED_M">     0</i>
  <separator name="electronic exchange-correlation" >
   <i type="string" name="GGA">PE</i>
   <i type="int" name="VOSKOWN">     0</i>
   <i type="logical" name="LHFCALC"> F  </i>
   <i type="string" name="PRECFOCK"></i>
   <i type="logical" name="LSYMGRAD"> F  </i>
   <i type="logical" name="LHFONE"> F  </i>
   <i type="logical" name="LRHFCALC"> F  </i>
   <i type="logical" name="LTHOMAS"> F  </i>
   <i type="logical" name="LMODELHF"> F  </i>
   <i name="ENCUT4O">     -1.00000000</i>
   <i type="int" name="EXXOEP">     0</i>
   <i type="int" name="FOURORBIT">     0</i>
   <i name="AEXX">      0.00000000</i>
   <i name="HFALPHA">      0.00000000</i>
   <i name="MCALPHA">      0.00000000</i>
   <i name="ALDAX">      1.00000000</i>
   <i name="AGGAX">      1.00000000</i>
   <i name="ALDAC">      1.00000000</i>
   <i name="AGGAC">      1.00000000</i>
   <i type="int" name="NKREDX">     1</i>
   <i type="int" name="NKREDY">     1</i>
   <i type="int" name="NKREDZ">     1</i>
   <i type="logical" name="SHIFTRED"> F  </i>
   <i type="logical" name="ODDONLY"> F  </i>
   <i type="logical" name="EVENONLY"> F  </i>
   <i type="int" name="LMAXFOCK">     0</i>
   <i type="int" name="NMAXFOCKAE">     0</i>
   <i type="logical" name="LFOCKAEDFT"> F  </i>
   <i name="HFSCREEN">      0.00000000</i>
   <i name="HFSCREENC">      0.00000000</i>
   <i type="int" name="NBANDSGWLOW">     0</i>
  </separator>
  <separator name="vdW DFT" >
   <i type="logical" name="LUSE_VDW"> F  </i>
   <i name="Zab_VDW">     -0.84910000</i>
   <i name="PARAM1">      0.12340000</i>
   <i name="PARAM2">      1.00000000</i>
   <i name="PARAM3">      0.00000000</i>
  </separator>
  <separator name="model GW" >
   <i type="int" name="MODEL_GW">     0</i>
   <i name="MODEL_EPS0">      7.29367704</i>
   <i name="MODEL_ALPHA">      1.00000000</i>
  </separator>
  <separator name="linear response parameters" >
   <i type="logical" name="LEPSILON"> F  </i>
   <i type="logical" name="LRPA"> F  </i>
   <i type="logical" name="LNABLA"> F  </i>
   <i type="logical" name="LVEL"> F  </i>
   <i type="int" name="KINTER">     0</i>
   <i name="CSHIFT">      0.10000000</i>
   <i name="OMEGAMAX">     -1.00000000</i>
   <i name="DEG_THRESHOLD">      0.00200000</i>
   <i name="RTIME">     -0.10000000</i>
   <i name="WPLASMAI">      0.00000000</i>
   <v name="DFIELD">      0.00000000      0.00000000      0.00000000</v>
   <v name="WPLASMA">      0.00000000      0.00000000      0.00000000      0.00000000      0.00000000      0.00000000      0.00000000      0.00000000      0.00000000</v>
  </separator>
  <separator name="orbital magnetization" >
   <i type="logical" name="NUCIND"> F  </i>
   <v name="MAGPOS">      0.00000000      0.00000000      0.00000000</v>
   <i type="logical" name="LNICSALL"> T  </i>
   <i type="logical" name="ORBITALMAG"> F  </i>
   <i type="logical" name="LMAGBLOCH"> F  </i>
   <i type="logical" name="LCHIMAG"> F  </i>
   <i type="logical" name="LGAUGE"> T  </i>
   <i type="int" name="MAGATOM">     0</i>
   <v name="MAGDIPOL">      0.00000000      0.00000000      0.00000000</v>
   <v name="AVECCONST">      0.00000000      0.00000000      0.00000000</v>
  </separator>
  <separator name="response functions" >
   <i type="logical" name="LADDER"> F  </i>
   <i type="logical" name="LRPAFORCE"> F  </i>
   <i type="logical" name="LFXC"> F  </i>
   <i type="logical" name="LHARTREE"> T  </i>
   <i type="int" name="IBSE">     0</i>
   <v type="int" name="KPOINT">    -1     0     0     0</v>
   <i type="logical" name="LTCTE"> F  </i>
   <i type="logical" name="LTETE"> F  </i>
   <i type="logical" name="LTRIPLET"> F  </i>
   <i type="logical" name="LFXCEPS"> F  </i>
   <i type="logical" name="LFXHEG"> F  </i>
   <i type="int" name="NATURALO">     2</i>
   <i type="logical" name="L2ORDER"> F  </i>
   <i type="logical" name="LMP2LT"> F  </i>
   <i type="logical" name="LUSEW"> F  </i>
   <i name="ENCUTGW">     -2.00000000</i>
   <i name="ENCUTGWSOFT">     -2.00000000</i>
   <i name="ENCUTLF">     -1.00000000</i>
   <i type="int" name="LMAXMP2">    -1</i>
   <i name="SCISSOR">      0.00000000</i>
   <i type="int" name="NOMEGA">     0</i>
   <i type="int" name="NOMEGAR">     0</i>
   <i type="int" name="NBANDSGW">    -1</i>
   <i type="int" name="NBANDSO">    -1</i>
   <i type="int" name="NBANDSV">    -1</i>
   <i type="int" name="NELM">   200</i>
   <i type="int" name="NELMHF">     1</i>
   <i type="int" name="DIM">     3</i>
   <i type="int" name="ANTIRES">     0</i>
   <i name="OMEGAMAX">    -30.00000000</i>
   <i name="OMEGAMIN">    -30.00000000</i>
   <i name="OMEGATL">   -200.00000000</i>
   <i type="int" name="OMEGAGRID">   140</i>
   <i name="CSHIFT">     -0.10000000</i>
   <i type="logical" name="SELFENERGY"> F  </i>
   <i type="logical" name="LSPECTRAL"> F  </i>
   <i type="logical" name="LSPECTRALGW"> F  </i>
   <i type="logical" name="LSINGLES"> F  </i>
   <i type="logical" name="LFERMIGW"> F  </i>
   <i type="logical" name="ODDONLYGW"> F  </i>
   <i type="logical" name="EVENONLYGW"> F  </i>
   <i type="int" name="NKREDLFX">     1</i>
   <i type="int" name="NKREDLFY">     1</i>
   <i type="int" name="NKREDLFZ">     1</i>
   <i type="int" name="MAXMEM">  2800</i>
   <i type="int" name="TELESCOPE">     0</i>
   <i type="int" name="TAUPAR">     1</i>
   <i type="int" name="OMEGAPAR">    -1</i>
   <i name="LAMBDA">      1.00000000</i>
  </separator>
  <separator name="External order field" >
   <i name="OFIELD_KAPPA">      0.00000000</i>
   <v name="OFIELD_K">      0.00000000      0.00000000      0.00000000</v>
   <i name="OFIELD_Q6_NEAR">      0.00000000</i>
   <i name="OFIELD_Q6_FAR">      0.00000000</i>
   <i name="OFIELD_A">      0.00000000</i>
  </separator>
 </parameters>
 <atominfo>
  <atoms>     160 </atoms>
  <types>       4 </types>
  <array name="atoms" >
   <dimension dim="1">ion</dimension>
   <field type="string">element</field>
   <field type="int">atomtype</field>
   <set>
    <rc><c>Li</c><c>   1</c></rc>
    <rc><c>Li</c><c>   1</c></rc>
    <rc><c>Li</c><c>   1</c></rc>
    <rc><c>Li</c><c>   1</c></rc>
    <rc><c>Li</c><c>   1</c></rc>
    <rc><c>Li</c><c>   1</c></rc>
    <rc><c>Li</c><c>   1</c></rc>
    <rc><c>Li</c><c>   1</c></rc>
    <rc><c>Li</c><c>   1</c></rc>
    <rc><c>Li</c><c>   1</c></rc>
    <rc><c>Li</c><c>   1</c></rc>
    <rc><c>Li</c><c>   1</c></rc>
    <rc><c>Li</c><c>   1</c></rc>
    <rc><c>Li</c><c>   1</c></rc>
    <rc><c>Li</c><c>   1</c></rc>
    <rc><c>Li</c><c>   1</c></rc>
    <rc><c>Li</c><c>   1</c></rc>
    <rc><c>Li</c><c>   1</c></rc>
    <rc><c>Li</c><c>   1</c></rc>
    <rc><c>Li</c><c>   1</c></rc>
    <rc><c>Li</c><c>   1</c></rc>
    <rc><c>Li</c><c>   1</c></rc>
    <rc><c>Li</c><c>   1</c></rc>
    <rc><c>Li</c><c>   1</c></rc>
    <rc><c>Li</c><c>   1</c></rc>
    <rc><c>Li</c><c>   1</c></rc>
    <rc><c>Li</c><c>   1</c></rc>
    <rc><c>Li</c><c>   1</c></rc>
    <rc><c>Li</c><c>   1</c></rc>
    <rc><c>Li</c><c>   1</c></rc>
    <rc><c>Li</c><c>   1</c></rc>
    <rc><c>Li</c><c>   1</c></rc>
    <rc><c>Li</c><c>   1</c></rc>
    <rc><c>Li</c><c>   1</c></rc>
    <rc><c>Li</c><c>   1</c></rc>
    <rc><c>Li</c><c>   1</c></rc>
    <rc><c>Li</c><c>   1</c></rc>
    <rc><c>Li</c><c>   1</c></rc>
    <rc><c>Li</c><c>   1</c></rc>
    <rc><c>Li</c><c>   1</c></rc>
    <rc><c>Li</c><c>   1</c></rc>
    <rc><c>Li</c><c>   1</c></rc>
    <rc><c>Li</c><c>   1</c></rc>
    <rc><c>Li</c><c>   1</c></rc>
    <rc><c>Li</c><c>   1</c></rc>
    <rc><c>Li</c><c>   1</c></rc>
    <rc><c>Li</c><c>   1</c></rc>
    <rc><c>Li</c><c>   1</c></rc>
    <rc><c>Li</c><c>   1</c></rc>
    <rc><c>Li</c><c>   1</c></rc>
    <rc><c>Li</c><c>   1</c></rc>
    <rc><c>Li</c><c>   1</c></rc>
    <rc><c>Li</c><c>   1</c></rc>
    <rc><c>Li</c><c>   1</c></rc>
    <rc><c>Li</c><c>   1</c></rc>
    <rc><c>Li</c><c>   1</c></rc>
    <rc><c>Li</c><c>   1</c></rc>
    <rc><c>Li</c><c>   1</c></rc>
    <rc><c>Li</c><c>   1</c></rc>
    <rc><c>Li</c><c>   1</c></rc>
    <rc><c>Li</c><c>   1</c></rc>
    <rc><c>Li</c><c>   1</c></rc>
    <rc><c>Li</c><c>   1</c></rc>
    <rc><c>Li</c><c>   1</c></rc>
    <rc><c>Fe</c><c>   2</c></rc>
    <rc><c>Fe</c><c>   2</c></rc>
    <rc><c>Fe</c><c>   2</c></rc>
    <rc><c>Fe</c><c>   2</c></rc>
    <rc><c>Fe</c><c>   2</c></rc>
    <rc><c>Fe</c><c>   2</c></rc>
    <rc><c>Fe</c><c>   2</c></rc>
    <rc><c>Fe</c><c>   2</c></rc>
    <rc><c>Fe</c><c>   2</c></rc>
    <rc><c>Fe</c><c>   2</c></rc>
    <rc><c>Fe</c><c>   2</c></rc>
    <rc><c>Fe</c><c>   2</c></rc>
    <rc><c>Fe</c><c>   2</c></rc>
    <rc><c>Fe</c><c>   2</c></rc>
    <rc><c>Fe</c><c>   2</c></rc>
    <rc><c>Fe</c><c>   2</c></rc>
    <rc><c>Fe</c><c>   2</c></rc>
    <rc><c>Fe</c><c>   2</c></rc>
    <rc><c>Fe</c><c>   2</c></rc>
    <rc><c>Fe</c><c>   2</c></rc>
    <rc><c>Fe</c><c>   2</c></rc>
    <rc><c>Fe</c><c>   2</c></rc>
    <rc><c>Fe</c><c>   2</c></rc>
    <rc><c>Fe</c><c>   2</c></rc>
    <rc><c>Fe</c><c>   2</c></rc>
    <rc><c>Fe</c><c>   2</c></rc>
    <rc><c>Fe</c><c>   2</c></rc>
    <rc><c>Fe</c><c>   2</c></rc>
    <rc><c>Fe</c><c>   2</c></rc>
    <rc><c>Fe</c><c>   2</c></rc>
    <rc><c>Fe</c><c>   2</c></rc>
    <rc><c>Fe</c><c>   2</c></rc>
    <rc><c>S </c><c>   3</c></rc>
    <rc><c>S </c><c>   3</c></rc>
    <rc><c>S </c><c>   3</c></rc>
    <rc><c>S </c><c>   3</c></rc>
    <rc><c>S </c><c>   3</c></rc>
    <rc><c>S </c><c>   3</c></rc>
    <rc><c>S </c><c>   3</c></rc>
    <rc><c>S </c><c>   3</c></rc>
    <rc><c>S </c><c>   3</c></rc>
    <rc><c>S </c><c>   3</c></rc>
    <rc><c>S </c><c>   3</c></rc>
    <rc><c>S </c><c>   3</c></rc>
    <rc><c>S </c><c>   3</c></rc>
    <rc><c>S </c><c>   3</c></rc>
    <rc><c>S </c><c>   3</c></rc>
    <rc><c>S </c><c>   3</c></rc>
    <rc><c>S </c><c>   3</c></rc>
    <rc><c>S </c><c>   3</c></rc>
    <rc><c>S </c><c>   3</c></rc>
    <rc><c>S </c><c>   3</c></rc>
    <rc><c>S </c><c>   3</c></rc>
    <rc><c>S </c><c>   3</c></rc>
    <rc><c>S </c><c>   3</c></rc>
    <rc><c>S </c><c>   3</c></rc>
    <rc><c>S </c><c>   3</c></rc>
    <rc><c>S </c><c>   3</c></rc>
    <rc><c>S </c><c>   3</c></rc>
    <rc><c>S </c><c>   3</c></rc>
    <rc><c>S </c><c>   3</c></rc>
    <rc><c>S </c><c>   3</c></rc>
    <rc><c>S </c><c>   3</c></rc>
    <rc><c>S </c><c>   3</c></rc>
    <rc><c>O </c><c>   4</c></rc>
    <rc><c>O </c><c>   4</c></rc>
    <rc><c>O </c><c>   4</c></rc>
    <rc><c>O </c><c>   4</c></rc>
    <rc><c>O </c><c>   4</c></rc>
    <rc><c>O </c><c>   4</c></rc>
    <rc><c>O </c><c>   4</c></rc>
    <rc><c>O </c><c>   4</c></rc>
    <rc><c>O </c><c>   4</c></rc>
    <rc><c>O </c><c>   4</c></rc>
    <rc><c>O </c><c>   4</c></rc>
    <rc><c>O </c><c>   4</c></rc>
    <rc><c>O </c><c>   4</c></rc>
    <rc><c>O </c><c>   4</c></rc>
    <rc><c>O </c><c>   4</c></rc>
    <rc><c>O </c><c>   4</c></rc>
    <rc><c>O </c><c>   4</c></rc>
    <rc><c>O </c><c>   4</c></rc>
    <rc><c>O </c><c>   4</c></rc>
    <rc><c>O </c><c>   4</c></rc>
    <rc><c>O </c><c>   4</c></rc>
    <rc><c>O </c><c>   4</c></rc>
    <rc><c>O </c><c>   4</c></rc>
    <rc><c>O </c><c>   4</c></rc>
    <rc><c>O </c><c>   4</c></rc>
    <rc><c>O </c><c>   4</c></rc>
    <rc><c>O </c><c>   4</c></rc>
    <rc><c>O </c><c>   4</c></rc>
    <rc><c>O </c><c>   4</c></rc>
    <rc><c>O </c><c>   4</c></rc>
    <rc><c>O </c><c>   4</c></rc>
    <rc><c>O </c><c>   4</c></rc>
   </set>
  </array>
  <array name="atomtypes" >
   <dimension dim="1">type</dimension>
   <field type="int">atomspertype</field>
   <field type="string">element</field>
   <field>mass</field>
   <field>valence</field>
   <field type="string">pseudopotential</field>
   <set>
    <rc><c>  64</c><c>Li</c><c>      7.01000000</c><c>      3.00000000</c><c>  PAW_PBE Li_sv 10Sep2004               </c></rc>
    <rc><c>  32</c><c>Fe</c><c>     55.84700000</c><c>     14.00000000</c><c>  PAW_PBE Fe_pv 02Aug2007               </c></rc>
    <rc><c>  32</c><c>S </c><c>     32.06600000</c><c>      6.00000000</c><c>  PAW_PBE S 06Sep2000                   </c></rc>
    <rc><c>  32</c><c>O </c><c>     16.00000000</c><c>      6.00000000</c><c>  PAW_PBE O 08Apr2002                   </c></rc>
   </set>
  </array>
 </atominfo>
 <structure name="initialpos" >
  <crystal>
   <varray name="basis" >
    <v>      15.37563712       0.00000000       0.00000000 </v>
    <v>       0.00000000      11.24757084       0.08259006 </v>
    <v>       0.00000000       0.08472870      11.24727794 </v>
   </varray>
   <i name="volume">   1944.98054282 </i>
   <varray name="rec_basis" >
    <v>       0.06503796       0.00000000       0.00000000 </v>
    <v>       0.00000000       0.08891300      -0.00066981 </v>
    <v>       0.00000000      -0.00065290       0.08891532 </v>
   </varray>
  </crystal>
  <varray name="positions" >
   <v>       0.12525680       0.27553588       0.47453981 </v>
   <v>       0.62525680       0.27553588       0.47453981 </v>
   <v>       0.12525680       0.77553588       0.47453981 </v>
   <v>       0.62525680       0.77553588       0.47453981 </v>
   <v>       0.12525680       0.27553588       0.97453981 </v>
   <v>       0.62525680       0.27553588       0.97453981 </v>
   <v>       0.12525680       0.77553588       0.97453981 </v>
   <v>       0.62525680       0.77553588       0.97453981 </v>
   <v>       0.12525680       0.47446412       0.27546019 </v>
   <v>       0.62525680       0.47446412       0.27546019 </v>
   <v>       0.12525680       0.97446412       0.27546019 </v>
   <v>       0.62525680       0.97446412       0.27546019 </v>
   <v>       0.12525680       0.47446412       0.77546019 </v>
   <v>       0.62525680       0.47446412       0.77546019 </v>
   <v>       0.12525680       0.97446412       0.77546019 </v>
   <v>       0.62525680       0.97446412       0.77546019 </v>
   <v>       0.37474320       0.22446412       0.02546019 </v>
   <v>       0.87474320       0.22446412       0.02546019 </v>
   <v>       0.37474320       0.72446412       0.02546019 </v>
   <v>       0.87474320       0.72446412       0.02546019 </v>
   <v>       0.37474320       0.22446412       0.52546019 </v>
   <v>       0.87474320       0.22446412       0.52546019 </v>
   <v>       0.37474320       0.72446412       0.52546019 </v>
   <v>       0.87474320       0.72446412       0.52546019 </v>
   <v>       0.37474320       0.02553588       0.22453981 </v>
   <v>       0.87474320       0.02553588       0.22453981 </v>
   <v>       0.37474320       0.52553588       0.22453981 </v>
   <v>       0.87474320       0.52553588       0.22453981 </v>
   <v>       0.37474320       0.02553588       0.72453981 </v>
   <v>       0.87474320       0.02553588       0.72453981 </v>
   <v>       0.37474320       0.52553588       0.72453981 </v>
   <v>       0.87474320       0.52553588       0.72453981 </v>
   <v>       0.27600236       0.37500000       0.37500000 </v>
   <v>       0.77600236       0.37500000       0.37500000 </v>
   <v>       0.27600236       0.87500000       0.37500000 </v>
   <v>       0.77600236       0.87500000       0.37500000 </v>
   <v>       0.27600236       0.37500000       0.87500000 </v>
   <v>       0.77600236       0.37500000       0.87500000 </v>
   <v>       0.27600236       0.87500000       0.87500000 </v>
   <v>       0.77600236       0.87500000       0.87500000 </v>
   <v>       0.22399764       0.12500000       0.12500000 </v>
   <v>       0.72399764       0.12500000       0.12500000 </v>
   <v>       0.22399764       0.62500000       0.12500000 </v>
   <v>       0.72399764       0.62500000       0.12500000 </v>
   <v>       0.22399764       0.12500000       0.62500000 </v>
   <v>       0.72399764       0.12500000       0.62500000 </v>
   <v>       0.22399764       0.62500000       0.62500000 </v>
   <v>       0.72399764       0.62500000       0.62500000 </v>
   <v>       0.49994073       0.37500000       0.12500000 </v>
   <v>       0.99994073       0.37500000       0.12500000 </v>
   <v>       0.49994073       0.87500000       0.12500000 </v>
   <v>       0.99994073       0.87500000       0.12500000 </v>
   <v>       0.49994073       0.37500000       0.62500000 </v>
   <v>       0.99994073       0.37500000       0.62500000 </v>
   <v>       0.49994073       0.87500000       0.62500000 </v>
   <v>       0.99994073       0.87500000       0.62500000 </v>
   <v>       0.00005927       0.12500000       0.37500000 </v>
   <v>       0.50005927       0.12500000       0.37500000 </v>
   <v>       0.00005927       0.62500000       0.37500000 </v>
   <v>       0.50005927       0.62500000       0.37500000 </v>
   <v>       0.00005927       0.12500000       0.87500000 </v>
   <v>       0.50005927       0.12500000       0.87500000 </v>
   <v>       0.00005927       0.62500000       0.87500000 </v>
   <v>       0.50005927       0.62500000       0.87500000 </v>
   <v>       0.47912905       0.37500000       0.37500000 </v>
   <v>       0.97912905       0.37500000       0.37500000 </v>
   <v>       0.47912905       0.87500000       0.37500000 </v>
   <v>       0.97912905       0.87500000       0.37500000 </v>
   <v>       0.47912905       0.37500000       0.87500000 </v>
   <v>       0.97912905       0.37500000       0.87500000 </v>
   <v>       0.47912905       0.87500000       0.87500000 </v>
   <v>       0.97912905       0.87500000       0.87500000 </v>
   <v>       0.02087095       0.12500000       0.12500000 </v>
   <v>       0.52087095       0.12500000       0.12500000 </v>
   <v>       0.02087095       0.62500000       0.12500000 </v>
   <v>       0.52087095       0.62500000       0.12500000 </v>
   <v>       0.02087095       0.12500000       0.62500000 </v>
   <v>       0.52087095       0.12500000       0.62500000 </v>
   <v>       0.02087095       0.62500000       0.62500000 </v>
   <v>       0.52087095       0.62500000       0.62500000 </v>
   <v>       0.25003487       0.37500000       0.12500000 </v>
   <v>       0.75003487       0.37500000       0.12500000 </v>
   <v>       0.25003487       0.87500000       0.12500000 </v>
   <v>       0.75003487       0.87500000       0.12500000 </v>
   <v>       0.25003487       0.37500000       0.62500000 </v>
   <v>       0.75003487       0.37500000       0.62500000 </v>
   <v>       0.25003487       0.87500000       0.62500000 </v>
   <v>       0.75003487       0.87500000       0.62500000 </v>
   <v>       0.24996513       0.12500000       0.37500000 </v>
   <v>       0.74996513       0.12500000       0.37500000 </v>
   <v>       0.24996513       0.62500000       0.37500000 </v>
   <v>       0.74996513       0.62500000       0.37500000 </v>
   <v>       0.24996513       0.12500000       0.87500000 </v>
   <v>       0.74996513       0.12500000       0.87500000 </v>
   <v>       0.24996513       0.62500000       0.87500000 </v>
   <v>       0.74996513       0.62500000       0.87500000 </v>
   <v>       0.12546906       0.50048787       0.49958956 </v>
   <v>       0.62546906       0.49959881       0.49958956 </v>
   <v>       0.12546906       0.99959881       0.49958956 </v>
   <v>       0.62546906       0.99959881       0.49958956 </v>
   <v>       0.12546906       0.49959881       0.99958956 </v>
   <v>       0.62546906       0.49959881       0.99958956 </v>
   <v>       0.12546906       0.99959881       0.99958956 </v>
   <v>       0.62546906       0.99959881       0.99958956 </v>
   <v>       0.12546906       0.25040119       0.25041044 </v>
   <v>       0.62546906       0.25040119       0.25041044 </v>
   <v>       0.12546906       0.75040119       0.25041044 </v>
   <v>       0.62546906       0.75040119       0.25041044 </v>
   <v>       0.12546906       0.25040119       0.75041044 </v>
   <v>       0.62546906       0.25040119       0.75041044 </v>
   <v>       0.12546906       0.75040119       0.75041044 </v>
   <v>       0.62546906       0.75040119       0.75041044 </v>
   <v>       0.37453094       0.00040119       0.00041044 </v>
   <v>       0.87453094       0.00040119       0.00041044 </v>
   <v>       0.37453094       0.50040119       0.00041044 </v>
   <v>       0.87453094       0.50040119       0.00041044 </v>
   <v>       0.37453094       0.00040119       0.50041044 </v>
   <v>       0.87453094       0.00040119       0.50041044 </v>
   <v>       0.37453094       0.50040119       0.50041044 </v>
   <v>       0.87453094       0.50040119       0.50041044 </v>
   <v>       0.37453094       0.24959881       0.24958956 </v>
   <v>       0.87453094       0.24959881       0.24958956 </v>
   <v>       0.37453094       0.74959881       0.24958956 </v>
   <v>       0.87453094       0.74959881       0.24958956 </v>
   <v>       0.37453094       0.24959881       0.74958956 </v>
   <v>       0.87453094       0.24959881       0.74958956 </v>
   <v>       0.37453094       0.74959881       0.74958956 </v>
   <v>       0.87453094       0.74959881       0.74958956 </v>
   <v>       0.00000000       0.25000000       0.00000000 </v>
   <v>       0.50000000       0.25000000       0.00000000 </v>
   <v>       0.00000000       0.75000000       0.00000000 </v>
   <v>       0.50000000       0.75000000       0.00000000 </v>
   <v>       0.00000000       0.25000000       0.50000000 </v>
   <v>       0.50000000       0.25000000       0.50000000 </v>
   <v>       0.00000000       0.75000000       0.50000000 </v>
   <v>       0.50000000       0.75000000       0.50000000 </v>
   <v>       0.00000000       0.00000000       0.25000000 </v>
   <v>       0.50000000       0.00000000       0.25000000 </v>
   <v>       0.00000000       0.50000000       0.25000000 </v>
   <v>       0.50000000       0.50000000       0.25000000 </v>
   <v>       0.00000000       0.00000000       0.75000000 </v>
   <v>       0.50000000       0.00000000       0.75000000 </v>
   <v>       0.00000000       0.50000000       0.75000000 </v>
   <v>       0.50000000       0.50000000       0.75000000 </v>
   <v>       0.25000000       0.25000000       0.00000000 </v>
   <v>       0.75000000       0.25000000       0.00000000 </v>
   <v>       0.25000000       0.75000000       0.00000000 </v>
   <v>       0.75000000       0.75000000       0.00000000 </v>
   <v>       0.25000000       0.25000000       0.50000000 </v>
   <v>       0.75000000       0.25000000       0.50000000 </v>
   <v>       0.25000000       0.75000000       0.50000000 </v>
   <v>       0.75000000       0.75000000       0.50000000 </v>
   <v>       0.25000000       0.00000000       0.25000000 </v>
   <v>       0.75000000       0.00000000       0.25000000 </v>
   <v>       0.25000000       0.50000000       0.25000000 </v>
   <v>       0.75000000       0.50000000       0.25000000 </v>
   <v>       0.25000000       0.00000000       0.75000000 </v>
   <v>       0.75000000       0.00000000       0.75000000 </v>
   <v>       0.25000000       0.50000000       0.75000000 </v>
   <v>       0.75000000       0.50000000       0.75000000 </v>
  </varray>
 </structure>
 <calculation>
  <scstep>
   <time name="dav">  349.60  355.74</time>
   <time name="total">  351.97  358.15</time>
   <energy>
    <i name="alphaZ">   2580.95227926 </i>
    <i name="ewald"> -67508.42628814 </i>
    <i name="hartreedc"> -35944.19242331 </i>
    <i name="XCdc">   4397.38415708 </i>
    <i name="pawpsdc"> 108731.45464712 </i>
    <i name="pawaedc">-112348.03830957 </i>
    <i name="eentropy">     -0.03757753 </i>
    <i name="bandstr">   -746.54793015 </i>
    <i name="atom"> 114309.28505226 </i>
    <i name="e_fr_energy">  13471.83360702 </i>
    <i name="e_wo_entrp">  13471.87118455 </i>
    <i name="e_0_energy">  13471.85239578 </i>
   </energy>
  </scstep>
  <scstep>
   <time name="dav">  336.60  342.29</time>
   <time name="total">  336.61  342.30</time>
   <energy>
    <i name="e_fr_energy">   1411.91528612 </i>
    <i name="e_wo_entrp">   1411.98051037 </i>
    <i name="e_0_energy">   1411.94789824 </i>
   </energy>
  </scstep>
  <scstep>
   <time name="dav">  367.64  373.96</time>
   <time name="total">  367.64  373.97</time>
   <energy>
    <i name="e_fr_energy">   -525.37300592 </i>
    <i name="e_wo_entrp">   -525.37300592 </i>
    <i name="e_0_energy">   -525.37300592 </i>
   </energy>
  </scstep>
  <scstep>
   <time name="dav">  423.55  429.82</time>
   <time name="total">  423.55  429.83</time>
   <energy>
    <i name="e_fr_energy">   -788.77584094 </i>
    <i name="e_wo_entrp">   -788.77584094 </i>
    <i name="e_0_energy">   -788.77584094 </i>
   </energy>
  </scstep>
  <scstep>
   <time name="dav">  531.19  539.94</time>
   <time name="total">  539.53  548.52</time>
   <energy>
    <i name="e_fr_energy">   -820.55647676 </i>
    <i name="e_wo_entrp">   -820.55647676 </i>
    <i name="e_0_energy">   -820.55647676 </i>
   </energy>
  </scstep>
  <scstep>
   <time name="dav">  435.36  442.53</time>
   <time name="total">  446.03  453.45</time>
   <energy>
    <i name="e_fr_energy">   -821.99431627 </i>
    <i name="e_wo_entrp">   -821.99431627 </i>
    <i name="e_0_energy">   -821.99431627 </i>
   </energy>
  </scstep>
  <scstep>
   <time name="dav">  495.00  502.79</time>
   <time name="total">  505.69  513.74</time>
   <energy>
    <i name="e_fr_energy">   -822.06702316 </i>
    <i name="e_wo_entrp">   -822.06702316 </i>
    <i name="e_0_energy">   -822.06702316 </i>
   </energy>
  </scstep>
  <scstep>
   <time name="dav">  469.61  477.49</time>
   <time name="total">  480.35  488.39</time>
   <energy>
    <i name="e_fr_energy">   -822.06703489 </i>
    <i name="e_wo_entrp">   -822.06703489 </i>
    <i name="e_0_energy">   -822.06703489 </i>
   </energy>
  </scstep>
  <scstep>
   <time name="dav">  496.26  505.02</time>
   <time name="total">  506.99  515.99</time>
   <energy>
    <i name="e_fr_energy">   -822.06608425 </i>
    <i name="e_wo_entrp">   -822.06608425 </i>
    <i name="e_0_energy">   -822.06608425 </i>
   </energy>
  </scstep>
  <scstep>
   <time name="dav">  510.06  518.41</time>
   <time name="total">  520.77  529.37</time>
   <energy>
    <i name="e_fr_energy">   -822.06561180 </i>
    <i name="e_wo_entrp">   -822.06561180 </i>
    <i name="e_0_energy">   -822.06561180 </i>
   </energy>
  </scstep>
  <scstep>
   <time name="dav">  532.88  541.49</time>
   <time name="total">  543.74  552.49</time>
   <energy>
    <i name="e_fr_energy">   -822.06267396 </i>
    <i name="e_wo_entrp">   -822.06267396 </i>
    <i name="e_0_energy">   -822.06267396 </i>
   </energy>
  </scstep>
  <scstep>
   <time name="dav">  406.90  413.75</time>
   <time name="total">  417.76  424.73</time>
   <energy>
    <i name="e_fr_energy">   -822.06248720 </i>
    <i name="e_wo_entrp">   -822.06248720 </i>
    <i name="e_0_energy">   -822.06248720 </i>
   </energy>
  </scstep>
  <scstep>
   <time name="dav">  517.06  525.55</time>
   <time name="total">  527.81  536.54</time>
   <energy>
    <i name="e_fr_energy">   -822.06198760 </i>
    <i name="e_wo_entrp">   -822.06198760 </i>
    <i name="e_0_energy">   -822.06198760 </i>
   </energy>
  </scstep>
  <scstep>
   <time name="dav">  465.34  473.09</time>
   <time name="total">  476.15  484.11</time>
   <energy>
    <i name="e_fr_energy">   -822.06192178 </i>
    <i name="e_wo_entrp">   -822.06192178 </i>
    <i name="e_0_energy">   -822.06192178 </i>
   </energy>
  </scstep>
  <scstep>
   <time name="dav">  512.95  520.88</time>
   <time name="total">  523.64  531.90</time>
   <energy>
    <i name="e_fr_energy">   -822.06176082 </i>
    <i name="e_wo_entrp">   -822.06176082 </i>
    <i name="e_0_energy">   -822.06176082 </i>
   </energy>
  </scstep>
  <scstep>
   <time name="dav">  408.04  414.98</time>
   <time name="total">  418.91  426.05</time>
   <energy>
    <i name="e_fr_energy">   -822.06174242 </i>
    <i name="e_wo_entrp">   -822.06174242 </i>
    <i name="e_0_energy">   -822.06174242 </i>
   </energy>
  </scstep>
  <scstep>
   <time name="dav">  479.75  487.69</time>
   <time name="total">  490.63  498.73</time>
   <energy>
    <i name="e_fr_energy">   -822.06173838 </i>
    <i name="e_wo_entrp">   -822.06173838 </i>
    <i name="e_0_energy">   -822.06173838 </i>
   </energy>
  </scstep>
  <scstep>
   <time name="dav">  442.79  450.04</time>
   <time name="total">  453.48  461.11</time>
   <energy>
    <i name="e_fr_energy">   -822.06173996 </i>
    <i name="e_wo_entrp">   -822.06173996 </i>
    <i name="e_0_energy">   -822.06173996 </i>
   </energy>
  </scstep>
  <scstep>
   <time name="dav">  380.98  387.48</time>
   <time name="total">  391.75  398.54</time>
   <energy>
    <i name="e_fr_energy">   -822.06174660 </i>
    <i name="e_wo_entrp">   -822.06174660 </i>
    <i name="e_0_energy">   -822.06174660 </i>
   </energy>
  </scstep>
  <scstep>
   <time name="dav">  476.30  484.12</time>
   <time name="total">  487.18  495.25</time>
   <energy>
    <i name="e_fr_energy">   -822.06174231 </i>
    <i name="e_wo_entrp">   -822.06174231 </i>
    <i name="e_0_energy">   -822.06174231 </i>
   </energy>
  </scstep>
  <scstep>
   <time name="dav">  393.11  399.00</time>
   <time name="total">  403.92  410.08</time>
   <energy>
    <i name="e_fr_energy">   -822.06174241 </i>
    <i name="e_wo_entrp">   -822.06174241 </i>
    <i name="e_0_energy">   -822.06174241 </i>
   </energy>
  </scstep>
  <scstep>
   <time name="dav">  379.33  385.44</time>
   <time name="total">  390.37  396.66</time>
   <energy>
    <i name="e_fr_energy">   -822.06174243 </i>
    <i name="e_wo_entrp">   -822.06174243 </i>
    <i name="e_0_energy">   -822.06174243 </i>
   </energy>
  </scstep>
  <scstep>
   <time name="dav">  286.49  291.38</time>
   <time name="total">  297.37  302.53</time>
   <energy>
    <i name="e_fr_energy">   -822.06174231 </i>
    <i name="e_wo_entrp">   -822.06174231 </i>
    <i name="e_0_energy">   -822.06174231 </i>
   </energy>
  </scstep>
  <scstep>
   <time name="dav">  353.74  359.93</time>
   <time name="total">  364.52  371.03</time>
   <energy>
    <i name="e_fr_energy">   -822.06174203 </i>
    <i name="e_wo_entrp">   -822.06174203 </i>
    <i name="e_0_energy">   -822.06174203 </i>
   </energy>
  </scstep>
  <scstep>
   <time name="dav">  331.48  336.97</time>
   <time name="total">  342.26  348.07</time>
   <energy>
    <i name="e_fr_energy">   -822.06174232 </i>
    <i name="e_wo_entrp">   -822.06174232 </i>
    <i name="e_0_energy">   -822.06174232 </i>
   </energy>
  </scstep>
  <scstep>
   <time name="dav">  244.33  248.69</time>
   <time name="total">  255.12  259.76</time>
   <energy>
    <i name="e_fr_energy">   -822.06174247 </i>
    <i name="e_wo_entrp">   -822.06174247 </i>
    <i name="e_0_energy">   -822.06174247 </i>
   </energy>
  </scstep>
  <scstep>
   <time name="dav">  281.31  286.70</time>
   <time name="total">  292.42  298.05</time>
   <energy>
    <i name="e_fr_energy">   -822.06174268 </i>
    <i name="e_wo_entrp">   -822.06174268 </i>
    <i name="e_0_energy">   -822.06174268 </i>
   </energy>
  </scstep>
  <scstep>
   <time name="dav">  358.75  365.15</time>
   <time name="total">  369.71  376.29</time>
   <energy>
    <i name="e_fr_energy">   -822.06174270 </i>
    <i name="e_wo_entrp">   -822.06174270 </i>
    <i name="e_0_energy">   -822.06174270 </i>
   </energy>
  </scstep>
  <scstep>
   <time name="dav">  264.63  269.17</time>
   <time name="total">  275.43  280.33</time>
   <energy>
    <i name="e_fr_energy">   -822.06174243 </i>
    <i name="e_wo_entrp">   -822.06174243 </i>
    <i name="e_0_energy">   -822.06174243 </i>
   </energy>
  </scstep>
  <scstep>
   <time name="dav">  226.08  230.38</time>
   <time name="total">  236.93  241.47</time>
   <energy>
    <i name="e_fr_energy">   -822.06174233 </i>
    <i name="e_wo_entrp">   -822.06174233 </i>
    <i name="e_0_energy">   -822.06174233 </i>
   </energy>
  </scstep>
  <scstep>
   <time name="dav">  225.51  229.23</time>
   <time name="total">  236.59  240.59</time>
   <energy>
    <i name="e_fr_energy">   -822.06174224 </i>
    <i name="e_wo_entrp">   -822.06174224 </i>
    <i name="e_0_energy">   -822.06174224 </i>
   </energy>
  </scstep>
  <scstep>
   <time name="dav">  226.38  230.74</time>
   <time name="total">  228.72  233.10</time>
   <energy>
    <i name="alphaZ">   2580.95227926 </i>
    <i name="ewald"> -67508.42628814 </i>
    <i name="hartreedc"> -35944.22366772 </i>
    <i name="XCdc">   4397.38400563 </i>
    <i name="pawpsdc"> 108732.08702399 </i>
    <i name="pawaedc">-112348.67251241 </i>
    <i name="eentropy">     -0.00000000 </i>
    <i name="bandstr"> -15040.44763511 </i>
    <i name="atom"> 114309.28505226 </i>
    <i name="e_fr_energy">   -822.06174225 </i>
    <i name="e_wo_entrp">   -822.06174225 </i>
    <i name="e_0_energy">   -822.06174225 </i>
   </energy>
  </scstep>
  <structure>
   <crystal>
    <varray name="basis" >
     <v>      15.37563712       0.00000000       0.00000000 </v>
     <v>       0.00000000      11.24757084       0.08259006 </v>
     <v>       0.00000000       0.08472870      11.24727794 </v>
    </varray>
    <i name="volume">   1944.98054282 </i>
    <varray name="rec_basis" >
     <v>       0.06503796       0.00000000       0.00000000 </v>
     <v>       0.00000000       0.08891300      -0.00066981 </v>
     <v>       0.00000000      -0.00065290       0.08891532 </v>
    </varray>
   </crystal>
   <varray name="positions" >
    <v>       0.12525680       0.27553588       0.47453981 </v>
    <v>       0.62525680       0.27553588       0.47453981 </v>
    <v>       0.12525680       0.77553588       0.47453981 </v>
    <v>       0.62525680       0.77553588       0.47453981 </v>
    <v>       0.12525680       0.27553588       0.97453981 </v>
    <v>       0.62525680       0.27553588       0.97453981 </v>
    <v>       0.12525680       0.77553588       0.97453981 </v>
    <v>       0.62525680       0.77553588       0.97453981 </v>
    <v>       0.12525680       0.47446412       0.27546019 </v>
    <v>       0.62525680       0.47446412       0.27546019 </v>
    <v>       0.12525680       0.97446412       0.27546019 </v>
    <v>       0.62525680       0.97446412       0.27546019 </v>
    <v>       0.12525680       0.47446412       0.77546019 </v>
    <v>       0.62525680       0.47446412       0.77546019 </v>
    <v>       0.12525680       0.97446412       0.77546019 </v>
    <v>       0.62525680       0.97446412       0.77546019 </v>
    <v>       0.37474320       0.22446412       0.02546019 </v>
    <v>       0.87474320       0.22446412       0.02546019 </v>
    <v>       0.37474320       0.72446412       0.02546019 </v>
    <v>       0.87474320       0.72446412       0.02546019 </v>
    <v>       0.37474320       0.22446412       0.52546019 </v>
    <v>       0.87474320       0.22446412       0.52546019 </v>
    <v>       0.37474320       0.72446412       0.52546019 </v>
    <v>       0.87474320       0.72446412       0.52546019 </v>
    <v>       0.37474320       0.02553588       0.22453981 </v>
    <v>       0.87474320       0.02553588       0.22453981 </v>
    <v>       0.37474320       0.52553588       0.22453981 </v>
    <v>       0.87474320       0.52553588       0.22453981 </v>
    <v>       0.37474320       0.02553588       0.72453981 </v>
    <v>       0.87474320       0.02553588       0.72453981 </v>
    <v>       0.37474320       0.52553588       0.72453981 </v>
    <v>       0.87474320       0.52553588       0.72453981 </v>
    <v>       0.27600236       0.37500000       0.37500000 </v>
    <v>       0.77600236       0.37500000       0.37500000 </v>
    <v>       0.27600236       0.87500000       0.37500000 </v>
    <v>       0.77600236       0.87500000       0.37500000 </v>
    <v>       0.27600236       0.37500000       0.87500000 </v>
    <v>       0.77600236       0.37500000       0.87500000 </v>
    <v>       0.27600236       0.87500000       0.87500000 </v>
    <v>       0.77600236       0.87500000       0.87500000 </v>
    <v>       0.22399764       0.12500000       0.12500000 </v>
    <v>       0.72399764       0.12500000       0.12500000 </v>
    <v>       0.22399764       0.62500000       0.12500000 </v>
    <v>       0.72399764       0.62500000       0.12500000 </v>
    <v>       0.22399764       0.12500000       0.62500000 </v>
    <v>       0.72399764       0.12500000       0.62500000 </v>
    <v>       0.22399764       0.62500000       0.62500000 </v>
    <v>       0.72399764       0.62500000       0.62500000 </v>
    <v>       0.49994073       0.37500000       0.12500000 </v>
    <v>       0.99994073       0.37500000       0.12500000 </v>
    <v>       0.49994073       0.87500000       0.12500000 </v>
    <v>       0.99994073       0.87500000       0.12500000 </v>
    <v>       0.49994073       0.37500000       0.62500000 </v>
    <v>       0.99994073       0.37500000       0.62500000 </v>
    <v>       0.49994073       0.87500000       0.62500000 </v>
    <v>       0.99994073       0.87500000       0.62500000 </v>
    <v>       0.00005927       0.12500000       0.37500000 </v>
    <v>       0.50005927       0.12500000       0.37500000 </v>
    <v>       0.00005927       0.62500000       0.37500000 </v>
    <v>       0.50005927       0.62500000       0.37500000 </v>
    <v>       0.00005927       0.12500000       0.87500000 </v>
    <v>       0.50005927       0.12500000       0.87500000 </v>
    <v>       0.00005927       0.62500000       0.87500000 </v>
    <v>       0.50005927       0.62500000       0.87500000 </v>
    <v>       0.47912905       0.37500000       0.37500000 </v>
    <v>       0.97912905       0.37500000       0.37500000 </v>
    <v>       0.47912905       0.87500000       0.37500000 </v>
    <v>       0.97912905       0.87500000       0.37500000 </v>
    <v>       0.47912905       0.37500000       0.87500000 </v>
    <v>       0.97912905       0.37500000       0.87500000 </v>
    <v>       0.47912905       0.87500000       0.87500000 </v>
    <v>       0.97912905       0.87500000       0.87500000 </v>
    <v>       0.02087095       0.12500000       0.12500000 </v>
    <v>       0.52087095       0.12500000       0.12500000 </v>
    <v>       0.02087095       0.62500000       0.12500000 </v>
    <v>       0.52087095       0.62500000       0.12500000 </v>
    <v>       0.02087095       0.12500000       0.62500000 </v>
    <v>       0.52087095       0.12500000       0.62500000 </v>
    <v>       0.02087095       0.62500000       0.62500000 </v>
    <v>       0.52087095       0.62500000       0.62500000 </v>
    <v>       0.25003487       0.37500000       0.12500000 </v>
    <v>       0.75003487       0.37500000       0.12500000 </v>
    <v>       0.25003487       0.87500000       0.12500000 </v>
    <v>       0.75003487       0.87500000       0.12500000 </v>
    <v>       0.25003487       0.37500000       0.62500000 </v>
    <v>       0.75003487       0.37500000       0.62500000 </v>
    <v>       0.25003487       0.87500000       0.62500000 </v>
    <v>       0.75003487       0.87500000       0.62500000 </v>
    <v>       0.24996513       0.12500000       0.37500000 </v>
    <v>       0.74996513       0.12500000       0.37500000 </v>
    <v>       0.24996513       0.62500000       0.37500000 </v>
    <v>       0.74996513       0.62500000       0.37500000 </v>
    <v>       0.24996513       0.12500000       0.87500000 </v>
    <v>       0.74996513       0.12500000       0.87500000 </v>
    <v>       0.24996513       0.62500000       0.87500000 </v>
    <v>       0.74996513       0.62500000       0.87500000 </v>
    <v>       0.12546906       0.50048787       0.49958956 </v>
    <v>       0.62546906       0.49959881       0.49958956 </v>
    <v>       0.12546906       0.99959881       0.49958956 </v>
    <v>       0.62546906       0.99959881       0.49958956 </v>
    <v>       0.12546906       0.49959881       0.99958956 </v>
    <v>       0.62546906       0.49959881       0.99958956 </v>
    <v>       0.12546906       0.99959881       0.99958956 </v>
    <v>       0.62546906       0.99959881       0.99958956 </v>
    <v>       0.12546906       0.25040119       0.25041044 </v>
    <v>       0.62546906       0.25040119       0.25041044 </v>
    <v>       0.12546906       0.75040119       0.25041044 </v>
    <v>       0.62546906       0.75040119       0.25041044 </v>
    <v>       0.12546906       0.25040119       0.75041044 </v>
    <v>       0.62546906       0.25040119       0.75041044 </v>
    <v>       0.12546906       0.75040119       0.75041044 </v>
    <v>       0.62546906       0.75040119       0.75041044 </v>
    <v>       0.37453094       0.00040119       0.00041044 </v>
    <v>       0.87453094       0.00040119       0.00041044 </v>
    <v>       0.37453094       0.50040119       0.00041044 </v>
    <v>       0.87453094       0.50040119       0.00041044 </v>
    <v>       0.37453094       0.00040119       0.50041044 </v>
    <v>       0.87453094       0.00040119       0.50041044 </v>
    <v>       0.37453094       0.50040119       0.50041044 </v>
    <v>       0.87453094       0.50040119       0.50041044 </v>
    <v>       0.37453094       0.24959881       0.24958956 </v>
    <v>       0.87453094       0.24959881       0.24958956 </v>
    <v>       0.37453094       0.74959881       0.24958956 </v>
    <v>       0.87453094       0.74959881       0.24958956 </v>
    <v>       0.37453094       0.24959881       0.74958956 </v>
    <v>       0.87453094       0.24959881       0.74958956 </v>
    <v>       0.37453094       0.74959881       0.74958956 </v>
    <v>       0.87453094       0.74959881       0.74958956 </v>
    <v>       0.00000000       0.25000000       0.00000000 </v>
    <v>       0.50000000       0.25000000       0.00000000 </v>
    <v>       0.00000000       0.75000000       0.00000000 </v>
    <v>       0.50000000       0.75000000       0.00000000 </v>
    <v>       0.00000000       0.25000000       0.50000000 </v>
    <v>       0.50000000       0.25000000       0.50000000 </v>
    <v>       0.00000000       0.75000000       0.50000000 </v>
    <v>       0.50000000       0.75000000       0.50000000 </v>
    <v>       0.00000000       0.00000000       0.25000000 </v>
    <v>       0.50000000       0.00000000       0.25000000 </v>
    <v>       0.00000000       0.50000000       0.25000000 </v>
    <v>       0.50000000       0.50000000       0.25000000 </v>
    <v>       0.00000000       0.00000000       0.75000000 </v>
    <v>       0.50000000       0.00000000       0.75000000 </v>
    <v>       0.00000000       0.50000000       0.75000000 </v>
    <v>       0.50000000       0.50000000       0.75000000 </v>
    <v>       0.25000000       0.25000000       0.00000000 </v>
    <v>       0.75000000       0.25000000       0.00000000 </v>
    <v>       0.25000000       0.75000000       0.00000000 </v>
    <v>       0.75000000       0.75000000       0.00000000 </v>
    <v>       0.25000000       0.25000000       0.50000000 </v>
    <v>       0.75000000       0.25000000       0.50000000 </v>
    <v>       0.25000000       0.75000000       0.50000000 </v>
    <v>       0.75000000       0.75000000       0.50000000 </v>
    <v>       0.25000000       0.00000000       0.25000000 </v>
    <v>       0.75000000       0.00000000       0.25000000 </v>
    <v>       0.25000000       0.50000000       0.25000000 </v>
    <v>       0.75000000       0.50000000       0.25000000 </v>
    <v>       0.25000000       0.00000000       0.75000000 </v>
    <v>       0.75000000       0.00000000       0.75000000 </v>
    <v>       0.25000000       0.50000000       0.75000000 </v>
    <v>       0.75000000       0.50000000       0.75000000 </v>
   </varray>
  </structure>
  <varray name="forces" >
   <v>      -0.00006146       0.00473572       0.00034750 </v>
   <v>       0.00001008      -0.00005480      -0.00005465 </v>
   <v>      -0.00006088      -0.00447105       0.00052209 </v>
   <v>       0.00000307      -0.00006796      -0.00007061 </v>
   <v>       0.00000052       0.00022127       0.00014251 </v>
   <v>       0.00001111      -0.00004530      -0.00005576 </v>
   <v>       0.00003396      -0.00009836      -0.00034208 </v>
   <v>       0.00000770      -0.00007788      -0.00006623 </v>
   <v>      -0.00039096       0.00250573       0.00010373 </v>
   <v>       0.00000242       0.00010590       0.00006004 </v>
   <v>      -0.00010426      -0.00081591      -0.00002719 </v>
   <v>      -0.00000079       0.00001337       0.00006022 </v>
   <v>      -0.00010453       0.00155222       0.00036463 </v>
   <v>       0.00002331       0.00011462       0.00006427 </v>
   <v>       0.00010796      -0.00100432       0.00009977 </v>
   <v>       0.00001920       0.00000919       0.00006212 </v>
   <v>       0.00008408       0.00000067       0.00007069 </v>
   <v>      -0.00008685       0.00000716      -0.00001454 </v>
   <v>      -0.00009170       0.00013094       0.00011524 </v>
   <v>       0.00008069       0.00011243       0.00007204 </v>
   <v>       0.00096519      -0.00006977       0.00007135 </v>
   <v>      -0.00091411      -0.00008865       0.00019137 </v>
   <v>      -0.00100417       0.00025086      -0.00004408 </v>
   <v>       0.00103567       0.00029171       0.00001746 </v>
   <v>       0.00003665      -0.00026239      -0.00007836 </v>
   <v>       0.00002292      -0.00028946      -0.00005271 </v>
   <v>      -0.00002612       0.00015085      -0.00000557 </v>
   <v>      -0.00006720       0.00015946      -0.00010731 </v>
   <v>      -0.00005200      -0.00030692      -0.00008232 </v>
   <v>      -0.00008695      -0.00026168      -0.00006859 </v>
   <v>       0.00001938       0.00018041      -0.00007369 </v>
   <v>       0.00018931       0.00017885      -0.00003601 </v>
   <v>       0.00252042       0.00026675      -0.00150324 </v>
   <v>      -0.00007768       0.00012803       0.00009712 </v>
   <v>      -0.00015735      -0.00095836       0.00049449 </v>
   <v>       0.00015809      -0.00011715      -0.00006431 </v>
   <v>       0.00024548       0.00029648       0.00020338 </v>
   <v>       0.00001979       0.00013055       0.00004629 </v>
   <v>      -0.00027727      -0.00035572      -0.00017082 </v>
   <v>       0.00015324      -0.00016552      -0.00009135 </v>
   <v>       0.00030345      -0.00045228      -0.00025505 </v>
   <v>      -0.00014184      -0.00012303      -0.00005690 </v>
   <v>      -0.00028704       0.00044399       0.00019993 </v>
   <v>       0.00000487       0.00010791       0.00002417 </v>
   <v>       0.00001908      -0.00109518       0.00039657 </v>
   <v>      -0.00005183      -0.00010232      -0.00005024 </v>
   <v>       0.00142449       0.00388504       0.00116165 </v>
   <v>      -0.00006031       0.00012851       0.00009477 </v>
   <v>       0.00014266       0.00011915      -0.00004120 </v>
   <v>      -0.00015374       0.00031560      -0.00025577 </v>
   <v>      -0.00002285      -0.00015027       0.00007648 </v>
   <v>       0.00044028      -0.00041561       0.00022054 </v>
   <v>       0.00011792       0.00012682      -0.00010531 </v>
   <v>      -0.00150116       0.00105344       0.00160168 </v>
   <v>       0.00004075      -0.00010905       0.00007211 </v>
   <v>       0.00021923      -0.00117692      -0.00041951 </v>
   <v>      -0.00026010      -0.00095323      -0.00044041 </v>
   <v>      -0.00004579      -0.00011278       0.00007122 </v>
   <v>       0.00133357       0.00119923       0.00135162 </v>
   <v>      -0.00009703       0.00014789      -0.00012765 </v>
   <v>      -0.00047877      -0.00041079       0.00022066 </v>
   <v>       0.00003221      -0.00015752       0.00008954 </v>
   <v>       0.00015174       0.00034111      -0.00032014 </v>
   <v>      -0.00012995       0.00013264      -0.00004474 </v>
   <v>       0.00014244       0.00021165       0.00014875 </v>
   <v>      -0.00337055       0.00189857      -0.00299607 </v>
   <v>      -0.00004042      -0.00022088      -0.00019106 </v>
   <v>       0.00055569      -0.00234389       0.00169542 </v>
   <v>       0.00022574       0.00031941       0.00009862 </v>
   <v>      -0.00029679       0.00089437      -0.00004851 </v>
   <v>      -0.00003911      -0.00028360      -0.00004317 </v>
   <v>       0.00050722      -0.00084868      -0.00006037 </v>
   <v>      -0.00074075      -0.00090726      -0.00013205 </v>
   <v>       0.00003286      -0.00024537      -0.00000966 </v>
   <v>       0.00044206       0.00105580       0.00015019 </v>
   <v>      -0.00020341       0.00028175       0.00005417 </v>
   <v>      -0.00027284      -0.00245044       0.00134229 </v>
   <v>       0.00002592      -0.00022431      -0.00014350 </v>
   <v>      -0.00234986       0.00834756       0.00266725 </v>
[...]
       <r>   -27.7303     0.0000   160.0000 </r>
       <r>   -27.4908     0.0000   160.0000 </r>
       <r>   -27.2514     0.0000   160.0000 </r>
       <r>   -27.0119     0.0000   160.0000 </r>
       <r>   -26.7725     0.0000   160.0000 </r>
       <r>   -26.5330     0.0000   160.0000 </r>
       <r>   -26.2935     0.0000   160.0000 </r>
       <r>   -26.0541     0.0000   160.0000 </r>
       <r>   -25.8146     0.0000   160.0000 </r>
       <r>   -25.5751     0.0000   160.0000 </r>
       <r>   -25.3357     0.0000   160.0000 </r>
       <r>   -25.0962     0.0000   160.0000 </r>
       <r>   -24.8568     0.0000   160.0000 </r>
       <r>   -24.6173     0.0000   160.0000 </r>
       <r>   -24.3778     0.0000   160.0000 </r>
       <r>   -24.1384     0.0000   160.0000 </r>
       <r>   -23.8989     0.0000   160.0000 </r>
       <r>   -23.6594     0.0000   160.0000 </r>
       <r>   -23.4200     0.0000   160.0000 </r>
       <r>   -23.1805     0.0000   160.0000 </r>
       <r>   -22.9411     0.0000   160.0000 </r>
       <r>   -22.7016     0.0000   160.0000 </r>
       <r>   -22.4621     0.0000   160.0000 </r>
       <r>   -22.2227     0.0000   160.0000 </r>
       <r>   -21.9832     0.0000   160.0000 </r>
       <r>   -21.7437     0.0000   160.0000 </r>
       <r>   -21.5043     0.0000   160.0000 </r>
       <r>   -21.2648     0.0000   160.0000 </r>
       <r>   -21.0254     0.0000   160.0000 </r>
       <r>   -20.7859     0.0000   160.0000 </r>
       <r>   -20.5464     0.0000   160.0000 </r>
       <r>   -20.3070     0.0000   160.0000 </r>
       <r>   -20.0675     0.0000   160.0000 </r>
       <r>   -19.8280     0.0000   160.0000 </r>
       <r>   -19.5886     0.0000   160.0000 </r>
       <r>   -19.3491     0.0000   160.0000 </r>
       <r>   -19.1097     0.0000   160.0000 </r>
       <r>   -18.8702     0.0000   160.0000 </r>
       <r>   -18.6307     0.0000   160.0000 </r>
       <r>   -18.3913     0.0000   160.0000 </r>
       <r>   -18.1518     0.0000   160.0000 </r>
       <r>   -17.9123     0.0000   160.0000 </r>
       <r>   -17.6729     0.0000   160.0000 </r>
       <r>   -17.4334     0.0000   160.0000 </r>
       <r>   -17.1939     0.0000   160.0000 </r>
       <r>   -16.9545     0.0000   160.0000 </r>
       <r>   -16.7150     0.0000   160.0000 </r>
       <r>   -16.4756     0.0000   160.0000 </r>
       <r>   -16.2361     0.0000   160.0000 </r>
       <r>   -15.9966     0.0000   160.0000 </r>
       <r>   -15.7572     0.0000   160.0000 </r>
       <r>   -15.5177     0.0000   160.0000 </r>
       <r>   -15.2782     0.0000   160.0000 </r>
       <r>   -15.0388     0.0000   160.0000 </r>
       <r>   -14.7993     0.0000   160.0000 </r>
       <r>   -14.5599     0.0000   160.0000 </r>
       <r>   -14.3204     0.0000   160.0000 </r>
       <r>   -14.0809     0.0000   160.0000 </r>
       <r>   -13.8415     0.0000   160.0000 </r>
       <r>   -13.6020     0.0000   160.0000 </r>
       <r>   -13.3625     0.0000   160.0000 </r>
       <r>   -13.1231    29.0194   166.9491 </r>
       <r>   -12.8836    99.8868   190.8682 </r>
       <r>   -12.6442     4.7263   192.0000 </r>
       <r>   -12.4047     0.0000   192.0000 </r>
       <r>   -12.1652     0.0000   192.0000 </r>
       <r>   -11.9258     0.0000   192.0000 </r>
       <r>   -11.6863     0.0000   192.0000 </r>
       <r>   -11.4468     0.0000   192.0000 </r>
       <r>   -11.2074     0.0000   192.0000 </r>
       <r>   -10.9679     0.0000   192.0000 </r>
       <r>   -10.7285     0.0000   192.0000 </r>
       <r>   -10.4890     0.0000   192.0000 </r>
       <r>   -10.2495     0.0000   192.0000 </r>
       <r>   -10.0101     0.0000   192.0000 </r>
       <r>    -9.7706     0.0000   192.0000 </r>
       <r>    -9.5311     0.0000   192.0000 </r>
       <r>    -9.2917     0.0000   192.0000 </r>
       <r>    -9.0522     0.0000   192.0000 </r>
       <r>    -8.8128     0.0000   192.0000 </r>
       <r>    -8.5733     0.0000   192.0000 </r>
       <r>    -8.3338     0.0000   192.0000 </r>
       <r>    -8.0944     0.0000   192.0000 </r>
       <r>    -7.8549     0.0000   192.0000 </r>
       <r>    -7.6154     0.0000   192.0000 </r>
       <r>    -7.3760     7.6781   193.8386 </r>
       <r>    -7.1365    60.7720   208.3912 </r>
       <r>    -6.8971    54.3397   221.4036 </r>
       <r>    -6.6576    10.8390   223.9991 </r>
       <r>    -6.4181     0.0037   224.0000 </r>
       <r>    -6.1787     0.0000   224.0000 </r>
       <r>    -5.9392     0.0000   224.0000 </r>
       <r>    -5.6997     0.0000   224.0000 </r>
       <r>    -5.4603     0.0000   224.0000 </r>
       <r>    -5.2208     0.0000   224.0000 </r>
       <r>    -4.9814     0.0000   224.0000 </r>
       <r>    -4.7419     0.0000   224.0000 </r>
       <r>    -4.5024     0.0000   224.0000 </r>
       <r>    -4.2630     0.0000   224.0000 </r>
       <r>    -4.0235     0.0000   224.0000 </r>
       <r>    -3.7840     0.0000   224.0000 </r>
       <r>    -3.5446     0.0000   224.0000 </r>
       <r>    -3.3051     0.0000   224.0000 </r>
       <r>    -3.0657     0.0000   224.0000 </r>
       <r>    -2.8262     0.0000   224.0000 </r>
       <r>    -2.5867     0.0000   224.0000 </r>
       <r>    -2.3473     0.0000   224.0000 </r>
       <r>    -2.1078     0.0000   224.0000 </r>
       <r>    -1.8683     0.0000   224.0000 </r>
       <r>    -1.6289     0.0000   224.0000 </r>
       <r>    -1.3894     0.0000   224.0000 </r>
       <r>    -1.1500     0.0000   224.0000 </r>
       <r>    -0.9105     3.4024   224.8147 </r>
       <r>    -0.6710    32.8995   232.6930 </r>
       <r>    -0.4316    18.8540   237.2078 </r>
       <r>    -0.1921    19.0902   241.7792 </r>
       <r>     0.0474    12.2461   244.7116 </r>
       <r>     0.2868    31.7206   252.3075 </r>
       <r>     0.5263    81.3945   271.7985 </r>
       <r>     0.7658    68.3798   288.1729 </r>
       <r>     1.0052    69.8195   304.8921 </r>
       <r>     1.2447    63.3755   320.0681 </r>
       <r>     1.4841    21.7097   325.2668 </r>
       <r>     1.7236    50.7195   337.4122 </r>
       <r>     1.9631    51.5837   349.7646 </r>
       <r>     2.2025    30.5573   357.0819 </r>
       <r>     2.4420    39.0613   366.4357 </r>
       <r>     2.6815    64.7002   381.9289 </r>
       <r>     2.9209    72.1733   399.2117 </r>
       <r>     3.1604    59.9395   413.5650 </r>
       <r>     3.3998    16.1003   417.4204 </r>
       <r>     3.6393    36.1568   426.0786 </r>
       <r>     3.8788    59.4134   440.3059 </r>
       <r>     4.1182    32.0869   447.9895 </r>
       <r>     4.3577     0.0437   448.0000 </r>
       <r>     4.5972     0.0000   448.0000 </r>
       <r>     4.8366     0.0000   448.0000 </r>
       <r>     5.0761     0.0000   448.0000 </r>
       <r>     5.3155     0.0000   448.0000 </r>
       <r>     5.5550     0.0000   448.0000 </r>
       <r>     5.7945     0.0000   448.0000 </r>
       <r>     6.0339     0.0000   448.0000 </r>
       <r>     6.2734     0.0000   448.0000 </r>
       <r>     6.5129     0.0677   448.0162 </r>
       <r>     6.7523    24.3550   453.8483 </r>
       <r>     6.9918    77.6893   472.4520 </r>
       <r>     7.2312    63.1981   487.5856 </r>
       <r>     7.4707    63.8424   502.8734 </r>
       <r>     7.7102    63.0740   517.9773 </r>
       <r>     7.9496    95.0450   540.7371 </r>
       <r>     8.1891    72.7103   558.1485 </r>
       <r>     8.4286    49.1766   569.9244 </r>
       <r>     8.6680    24.9913   575.9089 </r>
       <r>     8.9075     7.2539   577.6459 </r>
       <r>     9.1469     8.6046   579.7064 </r>
       <r>     9.3864    17.8139   583.9722 </r>
       <r>     9.6259    26.8410   590.3996 </r>
       <r>     9.8653    31.9445   598.0491 </r>
       <r>    10.1048    37.7924   607.0990 </r>
       <r>    10.3443    33.4856   615.1175 </r>
       <r>    10.5837    28.5704   621.9591 </r>
       <r>    10.8232    33.1032   629.8861 </r>
       <r>    11.0626    28.2027   636.6395 </r>
       <r>    11.3021    26.0187   642.8701 </r>
       <r>    11.5416    29.1932   649.8607 </r>
       <r>    11.7810    50.9950   662.0721 </r>
       <r>    12.0205    50.2534   674.1059 </r>
       <r>    12.2600    56.0009   687.5161 </r>
       <r>    12.4994    31.5746   695.0770 </r>
       <r>    12.7389    32.6724   702.9008 </r>
       <r>    12.9783    32.1781   710.6063 </r>
       <r>    13.2178    38.0697   719.7226 </r>
       <r>    13.4573    33.5535   727.7574 </r>
       <r>    13.6967    16.9372   731.8132 </r>
       <r>    13.9362     0.7801   732.0000 </r>
       <r>    14.1757     0.0000   732.0000 </r>
       <r>    14.4151     0.0000   732.0000 </r>
       <r>    14.6546     0.0000   732.0000 </r>
       <r>    14.8940     0.0000   732.0000 </r>
       <r>    15.1335     0.0000   732.0000 </r>
       <r>    15.3730     0.0000   732.0000 </r>
       <r>    15.6124     0.0000   732.0000 </r>
       <r>    15.8519     0.0000   732.0000 </r>
       <r>    16.0914     0.0000   732.0000 </r>
       <r>    16.3308     0.0000   732.0000 </r>
       <r>    16.5703     0.0000   732.0000 </r>
       <r>    16.8097     0.0000   732.0000 </r>
       <r>    17.0492     0.0000   732.0000 </r>
      </set>
     </set>
    </array>
   </total>
  </dos>
 </calculation>
 <structure name="finalpos" >
  <crystal>
   <varray name="basis" >
    <v>      15.37563712       0.00000000       0.00000000 </v>
    <v>       0.00000000      11.24757084       0.08259006 </v>
    <v>       0.00000000       0.08472870      11.24727794 </v>
   </varray>
   <i name="volume">   1944.98054282 </i>
   <varray name="rec_basis" >
    <v>       0.06503796       0.00000000       0.00000000 </v>
    <v>       0.00000000       0.08891300      -0.00066981 </v>
    <v>       0.00000000      -0.00065290       0.08891532 </v>
   </varray>
  </crystal>
  <varray name="positions" >
   <v>       0.12525680       0.27553588       0.47453981 </v>
   <v>       0.62525680       0.27553588       0.47453981 </v>
   <v>       0.12525680       0.77553588       0.47453981 </v>
   <v>       0.62525680       0.77553588       0.47453981 </v>
   <v>       0.12525680       0.27553588       0.97453981 </v>
   <v>       0.62525680       0.27553588       0.97453981 </v>
   <v>       0.12525680       0.77553588       0.97453981 </v>
   <v>       0.62525680       0.77553588       0.97453981 </v>
   <v>       0.12525680       0.47446412       0.27546019 </v>
   <v>       0.62525680       0.47446412       0.27546019 </v>
   <v>       0.12525680       0.97446412       0.27546019 </v>
   <v>       0.62525680       0.97446412       0.27546019 </v>
   <v>       0.12525680       0.47446412       0.77546019 </v>
   <v>       0.62525680       0.47446412       0.77546019 </v>
   <v>       0.12525680       0.97446412       0.77546019 </v>
   <v>       0.62525680       0.97446412       0.77546019 </v>
   <v>       0.37474320       0.22446412       0.02546019 </v>
   <v>       0.87474320       0.22446412       0.02546019 </v>
   <v>       0.37474320       0.72446412       0.02546019 </v>
   <v>       0.87474320       0.72446412       0.02546019 </v>
   <v>       0.37474320       0.22446412       0.52546019 </v>
   <v>       0.87474320       0.22446412       0.52546019 </v>
   <v>       0.37474320       0.72446412       0.52546019 </v>
   <v>       0.87474320       0.72446412       0.52546019 </v>
   <v>       0.37474320       0.02553588       0.22453981 </v>
   <v>       0.87474320       0.02553588       0.22453981 </v>
   <v>       0.37474320       0.52553588       0.22453981 </v>
   <v>       0.87474320       0.52553588       0.22453981 </v>
   <v>       0.37474320       0.02553588       0.72453981 </v>
   <v>       0.87474320       0.02553588       0.72453981 </v>
   <v>       0.37474320       0.52553588       0.72453981 </v>
   <v>       0.87474320       0.52553588       0.72453981 </v>
   <v>       0.27600236       0.37500000       0.37500000 </v>
   <v>       0.77600236       0.37500000       0.37500000 </v>
   <v>       0.27600236       0.87500000       0.37500000 </v>
   <v>       0.77600236       0.87500000       0.37500000 </v>
   <v>       0.27600236       0.37500000       0.87500000 </v>
   <v>       0.77600236       0.37500000       0.87500000 </v>
   <v>       0.27600236       0.87500000       0.87500000 </v>
   <v>       0.77600236       0.87500000       0.87500000 </v>
   <v>       0.22399764       0.12500000       0.12500000 </v>
   <v>       0.72399764       0.12500000       0.12500000 </v>
   <v>       0.22399764       0.62500000       0.12500000 </v>
   <v>       0.72399764       0.62500000       0.12500000 </v>
   <v>       0.22399764       0.12500000       0.62500000 </v>
   <v>       0.72399764       0.12500000       0.62500000 </v>
   <v>       0.22399764       0.62500000       0.62500000 </v>
   <v>       0.72399764       0.62500000       0.62500000 </v>
   <v>       0.49994073       0.37500000       0.12500000 </v>
   <v>       0.99994073       0.37500000       0.12500000 </v>
   <v>       0.49994073       0.87500000       0.12500000 </v>
   <v>       0.99994073       0.87500000       0.12500000 </v>
   <v>       0.49994073       0.37500000       0.62500000 </v>
   <v>       0.99994073       0.37500000       0.62500000 </v>
   <v>       0.49994073       0.87500000       0.62500000 </v>
   <v>       0.99994073       0.87500000       0.62500000 </v>
   <v>       0.00005927       0.12500000       0.37500000 </v>
   <v>       0.50005927       0.12500000       0.37500000 </v>
   <v>       0.00005927       0.62500000       0.37500000 </v>
   <v>       0.50005927       0.62500000       0.37500000 </v>
   <v>       0.00005927       0.12500000       0.87500000 </v>
   <v>       0.50005927       0.12500000       0.87500000 </v>
   <v>       0.00005927       0.62500000       0.87500000 </v>
   <v>       0.50005927       0.62500000       0.87500000 </v>
   <v>       0.47912905       0.37500000       0.37500000 </v>
   <v>       0.97912905       0.37500000       0.37500000 </v>
   <v>       0.47912905       0.87500000       0.37500000 </v>
   <v>       0.97912905       0.87500000       0.37500000 </v>
   <v>       0.47912905       0.37500000       0.87500000 </v>
   <v>       0.97912905       0.37500000       0.87500000 </v>
   <v>       0.47912905       0.87500000       0.87500000 </v>
   <v>       0.97912905       0.87500000       0.87500000 </v>
   <v>       0.02087095       0.12500000       0.12500000 </v>
   <v>       0.52087095       0.12500000       0.12500000 </v>
   <v>       0.02087095       0.62500000       0.12500000 </v>
   <v>       0.52087095       0.62500000       0.12500000 </v>
   <v>       0.02087095       0.12500000       0.62500000 </v>
   <v>       0.52087095       0.12500000       0.62500000 </v>
   <v>       0.02087095       0.62500000       0.62500000 </v>
   <v>       0.52087095       0.62500000       0.62500000 </v>
   <v>       0.25003487       0.37500000       0.12500000 </v>
   <v>       0.75003487       0.37500000       0.12500000 </v>
   <v>       0.25003487       0.87500000       0.12500000 </v>
   <v>       0.75003487       0.87500000       0.12500000 </v>
   <v>       0.25003487       0.37500000       0.62500000 </v>
   <v>       0.75003487       0.37500000       0.62500000 </v>
   <v>       0.25003487       0.87500000       0.62500000 </v>
   <v>       0.75003487       0.87500000       0.62500000 </v>
   <v>       0.24996513       0.12500000       0.37500000 </v>
   <v>       0.74996513       0.12500000       0.37500000 </v>
   <v>       0.24996513       0.62500000       0.37500000 </v>
   <v>       0.74996513       0.62500000       0.37500000 </v>
   <v>       0.24996513       0.12500000       0.87500000 </v>
   <v>       0.74996513       0.12500000       0.87500000 </v>
   <v>       0.24996513       0.62500000       0.87500000 </v>
   <v>       0.74996513       0.62500000       0.87500000 </v>
   <v>       0.12546906       0.50048787       0.49958956 </v>
   <v>       0.62546906       0.49959881       0.49958956 </v>
   <v>       0.12546906       0.99959881       0.49958956 </v>
   <v>       0.62546906       0.99959881       0.49958956 </v>
   <v>       0.12546906       0.49959881       0.99958956 </v>
   <v>       0.62546906       0.49959881       0.99958956 </v>
   <v>       0.12546906       0.99959881       0.99958956 </v>
   <v>       0.62546906       0.99959881       0.99958956 </v>
   <v>       0.12546906       0.25040119       0.25041044 </v>
   <v>       0.62546906       0.25040119       0.25041044 </v>
   <v>       0.12546906       0.75040119       0.25041044 </v>
   <v>       0.62546906       0.75040119       0.25041044 </v>
   <v>       0.12546906       0.25040119       0.75041044 </v>
   <v>       0.62546906       0.25040119       0.75041044 </v>
   <v>       0.12546906       0.75040119       0.75041044 </v>
   <v>       0.62546906       0.75040119       0.75041044 </v>
   <v>       0.37453094       0.00040119       0.00041044 </v>
   <v>       0.87453094       0.00040119       0.00041044 </v>
   <v>       0.37453094       0.50040119       0.00041044 </v>
   <v>       0.87453094       0.50040119       0.00041044 </v>
   <v>       0.37453094       0.00040119       0.50041044 </v>
   <v>       0.87453094       0.00040119       0.50041044 </v>
   <v>       0.37453094       0.50040119       0.50041044 </v>
   <v>       0.87453094       0.50040119       0.50041044 </v>
   <v>       0.37453094       0.24959881       0.24958956 </v>
   <v>       0.87453094       0.24959881       0.24958956 </v>
   <v>       0.37453094       0.74959881       0.24958956 </v>
   <v>       0.87453094       0.74959881       0.24958956 </v>
   <v>       0.37453094       0.24959881       0.74958956 </v>
   <v>       0.87453094       0.24959881       0.74958956 </v>
   <v>       0.37453094       0.74959881       0.74958956 </v>
   <v>       0.87453094       0.74959881       0.74958956 </v>
   <v>       0.00000000       0.25000000       0.00000000 </v>
   <v>       0.50000000       0.25000000       0.00000000 </v>
   <v>       0.00000000       0.75000000       0.00000000 </v>
   <v>       0.50000000       0.75000000       0.00000000 </v>
   <v>       0.00000000       0.25000000       0.50000000 </v>
   <v>       0.50000000       0.25000000       0.50000000 </v>
   <v>       0.00000000       0.75000000       0.50000000 </v>
   <v>       0.50000000       0.75000000       0.50000000 </v>
   <v>       0.00000000       0.00000000       0.25000000 </v>
   <v>       0.50000000       0.00000000       0.25000000 </v>
   <v>       0.00000000       0.50000000       0.25000000 </v>
   <v>       0.50000000       0.50000000       0.25000000 </v>
   <v>       0.00000000       0.00000000       0.75000000 </v>
   <v>       0.50000000       0.00000000       0.75000000 </v>
   <v>       0.00000000       0.50000000       0.75000000 </v>
   <v>       0.50000000       0.50000000       0.75000000 </v>
   <v>       0.25000000       0.25000000       0.00000000 </v>
   <v>       0.75000000       0.25000000       0.00000000 </v>
   <v>       0.25000000       0.75000000       0.00000000 </v>
   <v>       0.75000000       0.75000000       0.00000000 </v>
   <v>       0.25000000       0.25000000       0.50000000 </v>
   <v>       0.75000000       0.25000000       0.50000000 </v>
   <v>       0.25000000       0.75000000       0.50000000 </v>
   <v>       0.75000000       0.75000000       0.50000000 </v>
   <v>       0.25000000       0.00000000       0.25000000 </v>
   <v>       0.75000000       0.00000000       0.25000000 </v>
   <v>       0.25000000       0.50000000       0.25000000 </v>
   <v>       0.75000000       0.50000000       0.25000000 </v>
   <v>       0.25000000       0.00000000       0.75000000 </v>
   <v>       0.75000000       0.00000000       0.75000000 </v>
   <v>       0.25000000       0.50000000       0.75000000 </v>
   <v>       0.75000000       0.50000000       0.75000000 </v>
  </varray>
 </structure>
</modeling>
