  88  88   0   0
  0.1431748E+02  0.1111223E-08  0.1111745E-08  0.1056954E-08  0.5000000E-15
  1.000000000000000E-004
  CAR 
 unknown system                          
     17.91387911    -54.34251451  301      5.20879657      1.00000000
    -54.343  0.0000E+00  0.0000E+00  0.0000E+00  0.0000E+00
    -54.102  0.0000E+00  0.0000E+00  0.0000E+00  0.0000E+00
    -53.861  0.0000E+00  0.0000E+00  0.0000E+00  0.0000E+00
    -53.620  0.0000E+00  0.0000E+00  0.0000E+00  0.0000E+00
    -53.379  0.0000E+00  0.0000E+00  0.0000E+00  0.0000E+00
    -53.138  0.0000E+00  0.0000E+00  0.0000E+00  0.0000E+00
    -52.897  0.0000E+00  0.0000E+00  0.0000E+00  0.0000E+00
    -52.657  0.0000E+00  0.0000E+00  0.0000E+00  0.0000E+00
    -52.416  0.0000E+00  0.0000E+00  0.0000E+00  0.0000E+00
    -52.175  0.0000E+00  0.0000E+00  0.0000E+00  0.0000E+00
    -51.934  0.0000E+00  0.0000E+00  0.0000E+00  0.0000E+00
    -51.693  0.0000E+00  0.0000E+00  0.0000E+00  0.0000E+00
    -51.452  0.0000E+00  0.0000E+00  0.0000E+00  0.0000E+00
    -51.211  0.3237E-03  0.0000E+00  0.7796E-04  0.0000E+00
    -50.971  0.1307E+03  0.0000E+00  0.3147E+02  0.0000E+00
    -50.730  0.2180E+01  0.0000E+00  0.3200E+02  0.0000E+00
    -50.489  0.0000E+00  0.0000E+00  0.3200E+02  0.0000E+00
    -50.248  0.0000E+00  0.0000E+00  0.3200E+02  0.0000E+00
    -50.007  0.0000E+00  0.0000E+00  0.3200E+02  0.0000E+00
    -49.766  0.1834E+01  0.0000E+00  0.3244E+02  0.0000E+00
    -49.525  0.2353E+03  0.0000E+00  0.8912E+02  0.0000E+00
    -49.285  0.2856E+02  0.0000E+00  0.9600E+02  0.0000E+00
    -49.044  0.0000E+00  0.0000E+00  0.9600E+02  0.0000E+00
    -48.803  0.0000E+00  0.0000E+00  0.9600E+02  0.0000E+00
    -48.562  0.0000E+00  0.0000E+00  0.9600E+02  0.0000E+00
    -48.321  0.0000E+00  0.0000E+00  0.9600E+02  0.0000E+00
    -48.080  0.0000E+00  0.0000E+00  0.9600E+02  0.0000E+00
    -47.839  0.0000E+00  0.0000E+00  0.9600E+02  0.0000E+00
    -47.599  0.0000E+00  0.0000E+00  0.9600E+02  0.0000E+00
    -47.358  0.0000E+00  0.0000E+00  0.9600E+02  0.0000E+00
    -47.117  0.0000E+00  0.0000E+00  0.9600E+02  0.0000E+00
    -46.876  0.0000E+00  0.0000E+00  0.9600E+02  0.0000E+00
    -46.635  0.0000E+00  0.0000E+00  0.9600E+02  0.0000E+00
    -46.394  0.0000E+00  0.3459E+00  0.9600E+02  0.8331E-01
    -46.153  0.0000E+00  0.1325E+03  0.9600E+02  0.3199E+02
    -45.913  0.0000E+00  0.5925E+02  0.9600E+02  0.4626E+02
    -45.672  0.0000E+00  0.2065E+03  0.9600E+02  0.9600E+02
    -45.431  0.0000E+00  0.0000E+00  0.9600E+02  0.9600E+02
    -45.190  0.0000E+00  0.0000E+00  0.9600E+02  0.9600E+02
    -44.949  0.0000E+00  0.0000E+00  0.9600E+02  0.9600E+02
    -44.708  0.0000E+00  0.0000E+00  0.9600E+02  0.9600E+02
    -44.467  0.0000E+00  0.0000E+00  0.9600E+02  0.9600E+02
    -44.227  0.0000E+00  0.0000E+00  0.9600E+02  0.9600E+02
    -43.986  0.0000E+00  0.0000E+00  0.9600E+02  0.9600E+02
    -43.745  0.0000E+00  0.0000E+00  0.9600E+02  0.9600E+02
    -43.504  0.0000E+00  0.0000E+00  0.9600E+02  0.9600E+02
    -43.263  0.0000E+00  0.0000E+00  0.9600E+02  0.9600E+02
    -43.022  0.0000E+00  0.0000E+00  0.9600E+02  0.9600E+02
    -42.781  0.0000E+00  0.0000E+00  0.9600E+02  0.9600E+02
    -42.541  0.0000E+00  0.0000E+00  0.9600E+02  0.9600E+02
    -42.300  0.0000E+00  0.0000E+00  0.9600E+02  0.9600E+02
    -42.059  0.0000E+00  0.0000E+00  0.9600E+02  0.9600E+02
    -41.818  0.0000E+00  0.0000E+00  0.9600E+02  0.9600E+02
    -41.577  0.0000E+00  0.0000E+00  0.9600E+02  0.9600E+02
    -41.336  0.0000E+00  0.0000E+00  0.9600E+02  0.9600E+02
    -41.096  0.0000E+00  0.0000E+00  0.9600E+02  0.9600E+02
    -40.855  0.0000E+00  0.0000E+00  0.9600E+02  0.9600E+02
    -40.614  0.0000E+00  0.0000E+00  0.9600E+02  0.9600E+02
    -40.373  0.0000E+00  0.0000E+00  0.9600E+02  0.9600E+02
    -40.132  0.2245E-11  0.1423E-11  0.9600E+02  0.9600E+02
    -39.891  0.1515E+02  0.1401E+02  0.9965E+02  0.9938E+02
    -39.650  0.5128E+02  0.5242E+02  0.1120E+03  0.1120E+03
    -39.410  0.0000E+00  0.0000E+00  0.1120E+03  0.1120E+03
    -39.169  0.0000E+00  0.0000E+00  0.1120E+03  0.1120E+03
    -38.928  0.0000E+00  0.0000E+00  0.1120E+03  0.1120E+03
    -38.687  0.0000E+00  0.0000E+00  0.1120E+03  0.1120E+03
    -38.446  0.0000E+00  0.0000E+00  0.1120E+03  0.1120E+03
    -38.205  0.0000E+00  0.0000E+00  0.1120E+03  0.1120E+03
    -37.964  0.0000E+00  0.0000E+00  0.1120E+03  0.1120E+03
    -37.724  0.0000E+00  0.0000E+00  0.1120E+03  0.1120E+03
    -37.483  0.0000E+00  0.0000E+00  0.1120E+03  0.1120E+03
    -37.242  0.0000E+00  0.0000E+00  0.1120E+03  0.1120E+03
    -37.001  0.0000E+00  0.0000E+00  0.1120E+03  0.1120E+03
    -36.760  0.0000E+00  0.0000E+00  0.1120E+03  0.1120E+03
    -36.519  0.0000E+00  0.0000E+00  0.1120E+03  0.1120E+03
    -36.278  0.0000E+00  0.0000E+00  0.1120E+03  0.1120E+03
    -36.038  0.0000E+00  0.0000E+00  0.1120E+03  0.1120E+03
    -35.797  0.0000E+00  0.0000E+00  0.1120E+03  0.1120E+03
    -35.556  0.0000E+00  0.0000E+00  0.1120E+03  0.1120E+03
    -35.315  0.0000E+00  0.0000E+00  0.1120E+03  0.1120E+03
    -35.074  0.0000E+00  0.0000E+00  0.1120E+03  0.1120E+03
    -34.833  0.0000E+00  0.0000E+00  0.1120E+03  0.1120E+03
    -34.592  0.0000E+00  0.0000E+00  0.1120E+03  0.1120E+03
    -34.352  0.0000E+00  0.0000E+00  0.1120E+03  0.1120E+03
    -34.111  0.0000E+00  0.0000E+00  0.1120E+03  0.1120E+03
    -33.870  0.0000E+00  0.0000E+00  0.1120E+03  0.1120E+03
    -33.629  0.0000E+00  0.0000E+00  0.1120E+03  0.1120E+03
    -33.388  0.0000E+00  0.0000E+00  0.1120E+03  0.1120E+03
    -33.147  0.0000E+00  0.0000E+00  0.1120E+03  0.1120E+03
    -32.906  0.0000E+00  0.0000E+00  0.1120E+03  0.1120E+03
    -32.666  0.0000E+00  0.0000E+00  0.1120E+03  0.1120E+03
    -32.425  0.0000E+00  0.0000E+00  0.1120E+03  0.1120E+03
    -32.184  0.0000E+00  0.0000E+00  0.1120E+03  0.1120E+03
    -31.943  0.0000E+00  0.0000E+00  0.1120E+03  0.1120E+03
    -31.702  0.0000E+00  0.0000E+00  0.1120E+03  0.1120E+03
    -31.461  0.0000E+00  0.0000E+00  0.1120E+03  0.1120E+03
    -31.220  0.0000E+00  0.0000E+00  0.1120E+03  0.1120E+03
    -30.980  0.0000E+00  0.0000E+00  0.1120E+03  0.1120E+03
    -30.739  0.0000E+00  0.0000E+00  0.1120E+03  0.1120E+03
    -30.498  0.0000E+00  0.0000E+00  0.1120E+03  0.1120E+03
    -30.257  0.0000E+00  0.0000E+00  0.1120E+03  0.1120E+03
    -30.016  0.0000E+00  0.0000E+00  0.1120E+03  0.1120E+03
    -29.775  0.0000E+00  0.0000E+00  0.1120E+03  0.1120E+03
    -29.534  0.0000E+00  0.0000E+00  0.1120E+03  0.1120E+03
    -29.294  0.0000E+00  0.0000E+00  0.1120E+03  0.1120E+03
    -29.053  0.0000E+00  0.0000E+00  0.1120E+03  0.1120E+03
    -28.812  0.0000E+00  0.0000E+00  0.1120E+03  0.1120E+03
    -28.571  0.0000E+00  0.0000E+00  0.1120E+03  0.1120E+03
    -28.330  0.0000E+00  0.0000E+00  0.1120E+03  0.1120E+03
    -28.089  0.0000E+00  0.0000E+00  0.1120E+03  0.1120E+03
    -27.849  0.0000E+00  0.0000E+00  0.1120E+03  0.1120E+03
    -27.608  0.0000E+00  0.0000E+00  0.1120E+03  0.1120E+03
    -27.367  0.0000E+00  0.0000E+00  0.1120E+03  0.1120E+03
    -27.126  0.0000E+00  0.0000E+00  0.1120E+03  0.1120E+03
    -26.885  0.0000E+00  0.0000E+00  0.1120E+03  0.1120E+03
    -26.644  0.0000E+00  0.0000E+00  0.1120E+03  0.1120E+03
    -26.403  0.0000E+00  0.0000E+00  0.1120E+03  0.1120E+03
    -26.163  0.0000E+00  0.0000E+00  0.1120E+03  0.1120E+03
    -25.922  0.0000E+00  0.0000E+00  0.1120E+03  0.1120E+03
    -25.681  0.0000E+00  0.0000E+00  0.1120E+03  0.1120E+03
    -25.440  0.0000E+00  0.0000E+00  0.1120E+03  0.1120E+03
    -25.199  0.0000E+00  0.0000E+00  0.1120E+03  0.1120E+03
    -24.958  0.0000E+00  0.0000E+00  0.1120E+03  0.1120E+03
    -24.717  0.0000E+00  0.0000E+00  0.1120E+03  0.1120E+03
    -24.477  0.0000E+00  0.0000E+00  0.1120E+03  0.1120E+03
    -24.236  0.0000E+00  0.0000E+00  0.1120E+03  0.1120E+03
    -23.995  0.0000E+00  0.0000E+00  0.1120E+03  0.1120E+03
    -23.754  0.0000E+00  0.0000E+00  0.1120E+03  0.1120E+03
    -23.513  0.0000E+00  0.0000E+00  0.1120E+03  0.1120E+03
    -23.272  0.0000E+00  0.0000E+00  0.1120E+03  0.1120E+03
    -23.031  0.0000E+00  0.0000E+00  0.1120E+03  0.1120E+03
    -22.791  0.0000E+00  0.0000E+00  0.1120E+03  0.1120E+03
    -22.550  0.0000E+00  0.0000E+00  0.1120E+03  0.1120E+03
    -22.309  0.0000E+00  0.0000E+00  0.1120E+03  0.1120E+03
    -22.068  0.0000E+00  0.0000E+00  0.1120E+03  0.1120E+03
    -21.827  0.0000E+00  0.0000E+00  0.1120E+03  0.1120E+03
    -21.586  0.0000E+00  0.0000E+00  0.1120E+03  0.1120E+03
    -21.345  0.0000E+00  0.0000E+00  0.1120E+03  0.1120E+03
    -21.105  0.0000E+00  0.0000E+00  0.1120E+03  0.1120E+03
    -20.864  0.0000E+00  0.0000E+00  0.1120E+03  0.1120E+03
    -20.623  0.0000E+00  0.0000E+00  0.1120E+03  0.1120E+03
    -20.382  0.0000E+00  0.0000E+00  0.1120E+03  0.1120E+03
    -20.141  0.0000E+00  0.0000E+00  0.1120E+03  0.1120E+03
    -19.900  0.0000E+00  0.0000E+00  0.1120E+03  0.1120E+03
    -19.659  0.0000E+00  0.0000E+00  0.1120E+03  0.1120E+03
    -19.419  0.0000E+00  0.0000E+00  0.1120E+03  0.1120E+03
    -19.178  0.0000E+00  0.0000E+00  0.1120E+03  0.1120E+03
    -18.937  0.0000E+00  0.0000E+00  0.1120E+03  0.1120E+03
    -18.696  0.0000E+00  0.0000E+00  0.1120E+03  0.1120E+03
    -18.455  0.0000E+00  0.0000E+00  0.1120E+03  0.1120E+03
    -18.214  0.0000E+00  0.0000E+00  0.1120E+03  0.1120E+03
    -17.973  0.0000E+00  0.0000E+00  0.1120E+03  0.1120E+03
    -17.733  0.0000E+00  0.0000E+00  0.1120E+03  0.1120E+03
    -17.492  0.0000E+00  0.0000E+00  0.1120E+03  0.1120E+03
    -17.251  0.0000E+00  0.0000E+00  0.1120E+03  0.1120E+03
    -17.010  0.0000E+00  0.0000E+00  0.1120E+03  0.1120E+03
    -16.769  0.0000E+00  0.0000E+00  0.1120E+03  0.1120E+03
    -16.528  0.0000E+00  0.0000E+00  0.1120E+03  0.1120E+03
    -16.287  0.0000E+00  0.0000E+00  0.1120E+03  0.1120E+03
    -16.047  0.0000E+00  0.0000E+00  0.1120E+03  0.1120E+03
    -15.806  0.0000E+00  0.0000E+00  0.1120E+03  0.1120E+03
    -15.565  0.0000E+00  0.0000E+00  0.1120E+03  0.1120E+03
    -15.324  0.0000E+00  0.0000E+00  0.1120E+03  0.1120E+03
    -15.083  0.0000E+00  0.0000E+00  0.1120E+03  0.1120E+03
    -14.842  0.0000E+00  0.0000E+00  0.1120E+03  0.1120E+03
    -14.601  0.0000E+00  0.0000E+00  0.1120E+03  0.1120E+03
    -14.361  0.0000E+00  0.0000E+00  0.1120E+03  0.1120E+03
    -14.120  0.0000E+00  0.0000E+00  0.1120E+03  0.1120E+03
    -13.879  0.0000E+00  0.0000E+00  0.1120E+03  0.1120E+03
    -13.638  0.0000E+00  0.0000E+00  0.1120E+03  0.1120E+03
    -13.397  0.1129E-05  0.0000E+00  0.1120E+03  0.1120E+03
    -13.156  0.1992E+02  0.0000E+00  0.1168E+03  0.1120E+03
    -12.916  0.4536E+02  0.1142E-01  0.1277E+03  0.1120E+03
    -12.675  0.1146E+01  0.4345E+02  0.1280E+03  0.1225E+03
    -12.434  0.0000E+00  0.2297E+02  0.1280E+03  0.1280E+03
    -12.193  0.0000E+00  0.0000E+00  0.1280E+03  0.1280E+03
    -11.952  0.0000E+00  0.0000E+00  0.1280E+03  0.1280E+03
    -11.711  0.0000E+00  0.0000E+00  0.1280E+03  0.1280E+03
    -11.470  0.0000E+00  0.0000E+00  0.1280E+03  0.1280E+03
    -11.230  0.0000E+00  0.0000E+00  0.1280E+03  0.1280E+03
    -10.989  0.0000E+00  0.0000E+00  0.1280E+03  0.1280E+03
    -10.748  0.0000E+00  0.0000E+00  0.1280E+03  0.1280E+03
    -10.507  0.0000E+00  0.0000E+00  0.1280E+03  0.1280E+03
    -10.266  0.0000E+00  0.0000E+00  0.1280E+03  0.1280E+03
    -10.025  0.0000E+00  0.0000E+00  0.1280E+03  0.1280E+03
     -9.784  0.0000E+00  0.0000E+00  0.1280E+03  0.1280E+03
     -9.544  0.0000E+00  0.0000E+00  0.1280E+03  0.1280E+03
     -9.303  0.0000E+00  0.0000E+00  0.1280E+03  0.1280E+03
     -9.062  0.0000E+00  0.0000E+00  0.1280E+03  0.1280E+03
     -8.821  0.0000E+00  0.0000E+00  0.1280E+03  0.1280E+03
     -8.580  0.0000E+00  0.0000E+00  0.1280E+03  0.1280E+03
     -8.339  0.0000E+00  0.0000E+00  0.1280E+03  0.1280E+03
     -8.098  0.0000E+00  0.0000E+00  0.1280E+03  0.1280E+03
     -7.858  0.1543E-09  0.0000E+00  0.1280E+03  0.1280E+03
     -7.617  0.6531E+00  0.2873E-10  0.1282E+03  0.1280E+03
     -7.376  0.1298E+02  0.5822E+00  0.1313E+03  0.1281E+03
     -7.135  0.3025E+02  0.1427E+02  0.1386E+03  0.1316E+03
     -6.894  0.3473E+02  0.2940E+02  0.1469E+03  0.1387E+03
     -6.653  0.2104E+02  0.2662E+02  0.1520E+03  0.1451E+03
     -6.412  0.1183E-04  0.2873E+02  0.1520E+03  0.1520E+03
     -6.172  0.0000E+00  0.4145E-01  0.1520E+03  0.1520E+03
     -5.931  0.0000E+00  0.0000E+00  0.1520E+03  0.1520E+03
     -5.690  0.0000E+00  0.0000E+00  0.1520E+03  0.1520E+03
     -5.449  0.0000E+00  0.0000E+00  0.1520E+03  0.1520E+03
     -5.208  0.0000E+00  0.0000E+00  0.1520E+03  0.1520E+03
     -4.967  0.0000E+00  0.0000E+00  0.1520E+03  0.1520E+03
     -4.726  0.0000E+00  0.0000E+00  0.1520E+03  0.1520E+03
     -4.486  0.0000E+00  0.0000E+00  0.1520E+03  0.1520E+03
     -4.245  0.0000E+00  0.0000E+00  0.1520E+03  0.1520E+03
     -4.004  0.0000E+00  0.0000E+00  0.1520E+03  0.1520E+03
     -3.763  0.0000E+00  0.0000E+00  0.1520E+03  0.1520E+03
     -3.522  0.0000E+00  0.0000E+00  0.1520E+03  0.1520E+03
     -3.281  0.0000E+00  0.0000E+00  0.1520E+03  0.1520E+03
     -3.040  0.0000E+00  0.0000E+00  0.1520E+03  0.1520E+03
     -2.800  0.0000E+00  0.0000E+00  0.1520E+03  0.1520E+03
     -2.559  0.0000E+00  0.0000E+00  0.1520E+03  0.1520E+03
     -2.318  0.0000E+00  0.0000E+00  0.1520E+03  0.1520E+03
     -2.077  0.4580E-04  0.0000E+00  0.1520E+03  0.1520E+03
     -1.836  0.1655E+02  0.0000E+00  0.1560E+03  0.1520E+03
     -1.595  0.1935E+02  0.0000E+00  0.1606E+03  0.1520E+03
     -1.354  0.1463E+02  0.0000E+00  0.1642E+03  0.1520E+03
     -1.114  0.1729E+02  0.0000E+00  0.1683E+03  0.1520E+03
     -0.873  0.4651E+02  0.0000E+00  0.1795E+03  0.1520E+03
     -0.632  0.5910E+02  0.1828E-05  0.1938E+03  0.1520E+03
     -0.391  0.3872E+02  0.4544E+01  0.2031E+03  0.1531E+03
     -0.150  0.6845E+02  0.2031E+02  0.2196E+03  0.1580E+03
      0.091  0.7348E+02  0.1226E+02  0.2373E+03  0.1609E+03
      0.331  0.7763E+02  0.1877E+02  0.2560E+03  0.1655E+03
      0.572  0.7004E+02  0.2967E+02  0.2728E+03  0.1726E+03
      0.813  0.5470E+02  0.3939E+02  0.2860E+03  0.1821E+03
      1.054  0.3631E+02  0.3729E+02  0.2948E+03  0.1911E+03
      1.295  0.3074E+02  0.3085E+02  0.3022E+03  0.1985E+03
      1.536  0.4503E+02  0.2083E+02  0.3130E+03  0.2035E+03
      1.777  0.4284E+02  0.2880E+02  0.3233E+03  0.2105E+03
      2.017  0.6911E+02  0.3731E+02  0.3400E+03  0.2194E+03
      2.258  0.5688E+02  0.2710E+02  0.3537E+03  0.2260E+03
      2.499  0.2703E+02  0.2709E+02  0.3602E+03  0.2325E+03
      2.740  0.4281E+02  0.3128E+02  0.3705E+03  0.2400E+03
      2.981  0.2933E+02  0.4461E+02  0.3776E+03  0.2508E+03
      3.222  0.8733E+01  0.4544E+02  0.3797E+03  0.2617E+03
      3.463  0.2851E+02  0.3141E+02  0.3865E+03  0.2693E+03
      3.703  0.2685E+02  0.1218E+02  0.3930E+03  0.2722E+03
      3.944  0.3113E+02  0.1833E+02  0.4005E+03  0.2766E+03
      4.185  0.3590E+02  0.5213E+02  0.4091E+03  0.2892E+03
      4.426  0.3638E+02  0.4534E+02  0.4179E+03  0.3001E+03
      4.667  0.3005E+02  0.1613E+02  0.4252E+03  0.3040E+03
      4.908  0.2564E+02  0.3007E-02  0.4313E+03  0.3040E+03
      5.149  0.2801E+01  0.0000E+00  0.4320E+03  0.3040E+03
      5.389  0.0000E+00  0.0000E+00  0.4320E+03  0.3040E+03
      5.630  0.0000E+00  0.0000E+00  0.4320E+03  0.3040E+03
      5.871  0.0000E+00  0.0000E+00  0.4320E+03  0.3040E+03
      6.112  0.0000E+00  0.9664E-09  0.4320E+03  0.3040E+03
      6.353  0.0000E+00  0.4348E+00  0.4320E+03  0.3041E+03
      6.594  0.0000E+00  0.4213E+01  0.4320E+03  0.3051E+03
      6.835  0.0000E+00  0.8013E+01  0.4320E+03  0.3070E+03
      7.075  0.2535E-14  0.1984E+02  0.4320E+03  0.3118E+03
      7.316  0.3377E-01  0.4458E+02  0.4320E+03  0.3226E+03
      7.557  0.1200E+00  0.5384E+02  0.4320E+03  0.3355E+03
      7.798  0.2825E+00  0.6302E+02  0.4321E+03  0.3507E+03
      8.039  0.7097E+00  0.6621E+02  0.4323E+03  0.3667E+03
      8.280  0.2223E+01  0.7041E+02  0.4328E+03  0.3836E+03
      8.521  0.2657E+01  0.5869E+02  0.4335E+03  0.3978E+03
      8.761  0.8972E+01  0.5881E+02  0.4356E+03  0.4119E+03
      9.002  0.1262E+02  0.4713E+02  0.4387E+03  0.4233E+03
      9.243  0.1316E+02  0.2930E+02  0.4418E+03  0.4303E+03
      9.484  0.1812E+02  0.8646E+01  0.4462E+03  0.4324E+03
      9.725  0.1615E+02  0.3155E+01  0.4501E+03  0.4332E+03
      9.966  0.1573E+02  0.8453E+01  0.4539E+03  0.4352E+03
     10.207  0.2249E+02  0.1883E+02  0.4593E+03  0.4397E+03
     10.447  0.1486E+02  0.1796E+02  0.4629E+03  0.4441E+03
     10.688  0.1523E+02  0.1732E+02  0.4665E+03  0.4482E+03
     10.929  0.1333E+02  0.2753E+02  0.4697E+03  0.4549E+03
     11.170  0.2070E+02  0.1895E+02  0.4747E+03  0.4594E+03
     11.411  0.2501E+02  0.2408E+02  0.4808E+03  0.4652E+03
     11.652  0.2701E+02  0.1449E+02  0.4873E+03  0.4687E+03
     11.893  0.2496E+02  0.1390E+02  0.4933E+03  0.4721E+03
     12.133  0.3315E+02  0.1629E+02  0.5013E+03  0.4760E+03
     12.374  0.1983E+02  0.3720E+02  0.5060E+03  0.4850E+03
     12.615  0.2310E+02  0.3248E+02  0.5116E+03  0.4928E+03
     12.856  0.2153E+02  0.2941E+02  0.5168E+03  0.4999E+03
     13.097  0.2003E+02  0.2019E+02  0.5216E+03  0.5047E+03
     13.338  0.2437E+02  0.2249E+02  0.5275E+03  0.5101E+03
     13.578  0.2388E+02  0.2727E+02  0.5332E+03  0.5167E+03
     13.819  0.1333E+02  0.2373E+02  0.5364E+03  0.5224E+03
     14.060  0.6509E+01  0.2616E+02  0.5380E+03  0.5287E+03
     14.301  0.3271E-02  0.1908E+02  0.5380E+03  0.5333E+03
     14.542  0.0000E+00  0.1652E+02  0.5380E+03  0.5373E+03
     14.783  0.0000E+00  0.2911E+01  0.5380E+03  0.5380E+03
     15.024  0.0000E+00  0.2240E-05  0.5380E+03  0.5380E+03
     15.264  0.0000E+00  0.0000E+00  0.5380E+03  0.5380E+03
     15.505  0.0000E+00  0.0000E+00  0.5380E+03  0.5380E+03
     15.746  0.0000E+00  0.0000E+00  0.5380E+03  0.5380E+03
     15.987  0.0000E+00  0.0000E+00  0.5380E+03  0.5380E+03
     16.228  0.0000E+00  0.0000E+00  0.5380E+03  0.5380E+03
     16.469  0.0000E+00  0.0000E+00  0.5380E+03  0.5380E+03
     16.710  0.0000E+00  0.0000E+00  0.5380E+03  0.5380E+03
     16.950  0.0000E+00  0.0000E+00  0.5380E+03  0.5380E+03
     17.191  0.0000E+00  0.0000E+00  0.5380E+03  0.5380E+03
     17.432  0.0000E+00  0.0000E+00  0.5380E+03  0.5380E+03
     17.673  0.0000E+00  0.0000E+00  0.5380E+03  0.5380E+03
     17.914  0.0000E+00  0.0000E+00  0.5380E+03  0.5380E+03
