   11   11    1    2
  0.1387989E+02  0.3890938E-09  0.3890938E-09  0.1045670E-08  0.5000000E-15
  1.000000000000000E-004
  CAR 
 unknown system                          
     92     26     68
 
  0.0000000E+00  0.0000000E+00  0.0000000E+00  0.1388889E-01
    1      -55.740177    -49.116606   1.000000   1.000000
    2      -55.740169    -49.116598   1.000000   1.000000
    3      -55.709737    -49.067206   1.000000   1.000000
    4      -55.707158    -49.064964   1.000000   1.000000
    5      -54.332036    -49.049876   1.000000   1.000000
    6      -54.332033    -49.049837   1.000000   1.000000
    7      -54.185861    -49.043341   1.000000   1.000000
    8      -54.185656    -49.040785   1.000000   1.000000
    9      -54.173709    -49.022453   1.000000   1.000000
   10      -54.173192    -49.021623   1.000000   1.000000
   11      -54.158802    -49.017316   1.000000   1.000000
   12      -54.158470    -49.016559   1.000000   1.000000
   13      -43.245837    -43.244898   1.000000   1.000000
   14      -43.245567    -43.244609   1.000000   1.000000
   15      -15.841125    -15.308508   1.000000   1.000000
   16      -15.810661    -15.275198   1.000000   1.000000
   17       -9.402858     -9.041049   1.000000   1.000000
   18       -9.151199     -8.842611   1.000000   1.000000
   19       -8.647594     -8.231299   1.000000   1.000000
   20       -2.105097     -0.349540   1.000000   1.000000
   21       -1.786369     -0.207291   1.000000   1.000000
   22       -1.778559     -0.201171   1.000000   1.000000
   23       -1.734599     -0.001237   1.000000   1.000000
   24       -1.077173      0.125847   1.000000   1.000000
   25       -1.004701      0.272769   1.000000   1.000000
   26       -0.982639      0.309140   1.000000   1.000000
   27       -0.744270      0.621503   1.000000   1.000000
   28       -0.403223      2.375746   1.000000   1.000000
   29       -0.402988      2.423044   1.000000   1.000000
   30       -0.231542      2.628448   1.000000   1.000000
   31       -0.194005      2.852554   1.000000   1.000000
   32       -0.033762      3.243247   1.000000   1.000000
   33       -0.023192      3.259737   1.000000   1.000000
   34        0.211580      3.460766   1.000000   1.000000
   35        0.406091      3.712168   1.000000   1.000000
   36        0.626823      3.789215   1.000000   1.000000
   37        0.661899      4.002478   1.000000   1.000000
   38        0.682350      4.573968   1.000000   1.000000
   39        0.796719      7.159426   1.000000   0.000000
   40        1.092531      7.874363   1.000000   0.000000
   41        1.161021      7.906246   1.000000   0.000000
   42        1.194787      7.994045   1.000000   0.000000
   43        1.292794      8.080239   1.000000   0.000000
   44        1.444332      8.350902   1.000000   0.000000
   45        1.956403      8.475409   1.000000   0.000000
   46        2.010698      8.533276   1.000000   0.000000
   47        2.760720      8.755863   1.000000   0.000000
   48        2.869750      8.772448   1.000000   0.000000
   49        2.938479      9.021224   1.000000   0.000000
   50        3.624713      9.061458   1.000000   0.000000
   51        3.641997      9.160128   1.000000   0.000000
   52        3.688663      9.171922   1.000000   0.000000
   53        4.095228      9.878663   1.000000   0.000000
   54        4.103038      9.884652   1.000000   0.000000
   55        8.353807      9.935236   0.000000   0.000000
   56        9.330046     11.014605   0.000000   0.000000
   57       10.698383     11.365430   0.000000   0.000000
   58       10.770900     11.656493   0.000000   0.000000
   59       11.341250     12.203426   0.000000   0.000000
   60       11.967101     12.744892   0.000000   0.000000
   61       12.461139     13.332640   0.000000   0.000000
   62       12.658745     13.381600   0.000000   0.000000
   63       12.740129     13.751294   0.000000   0.000000
   64       13.266957     13.822573   0.000000   0.000000
   65       15.485141     16.059314   0.000000   0.000000
   66       15.572916     16.384247   0.000000   0.000000
   67       15.741167     16.509239   0.000000   0.000000
   68       15.835566     16.716080   0.000000   0.000000
 
  0.1666667E+00 -0.1838108E-18  0.4285892E-14  0.5555556E-01
    1      -55.741078    -49.116830   1.000000   1.000000
    2      -55.740167    -49.116382   1.000000   1.000000
    3      -55.709328    -49.066689   1.000000   1.000000
    4      -55.707048    -49.064774   1.000000   1.000000
    5      -54.332267    -49.053032   1.000000   1.000000
    6      -54.332045    -49.049753   1.000000   1.000000
    7      -54.186158    -49.042401   1.000000   1.000000
    8      -54.185701    -49.039946   1.000000   1.000000
    9      -54.173759    -49.022143   1.000000   1.000000
   10      -54.173295    -49.021135   1.000000   1.000000
   11      -54.158796    -49.017602   1.000000   1.000000
   12      -54.158365    -49.016544   1.000000   1.000000
   13      -43.245554    -43.244569   1.000000   1.000000
   14      -43.245344    -43.244344   1.000000   1.000000
   15      -15.835708    -15.301756   1.000000   1.000000
   16      -15.760517    -15.227262   1.000000   1.000000
   17       -9.301855     -8.949519   1.000000   1.000000
   18       -9.076880     -8.758743   1.000000   1.000000
   19       -8.600391     -8.194047   1.000000   1.000000
   20       -2.389506     -0.819511   1.000000   1.000000
   21       -2.010020     -0.316170   1.000000   1.000000
   22       -1.754868     -0.170911   1.000000   1.000000
   23       -1.513902     -0.124532   1.000000   1.000000
   24       -1.251831     -0.030942   1.000000   1.000000
   25       -1.229118      0.273900   1.000000   1.000000
   26       -1.023011      0.538233   1.000000   1.000000
   27       -0.618414      0.893473   1.000000   1.000000
   28       -0.526804      1.927134   1.000000   1.000000
   29       -0.390847      2.197445   1.000000   1.000000
   30       -0.295248      2.430593   1.000000   1.000000
   31       -0.267958      2.629265   1.000000   1.000000
   32       -0.151774      2.793441   1.000000   1.000000
   33       -0.043762      3.123642   1.000000   1.000000
   34        0.169148      3.485736   1.000000   1.000000
   35        0.288514      3.653691   1.000000   1.000000
   36        0.320196      3.847089   1.000000   1.000000
   37        0.556904      4.034665   1.000000   1.000000
   38        0.849082      4.559831   1.000000   1.000000
   39        0.885476      7.810449   1.000000   0.000000
   40        1.018852      7.852270   1.000000   0.000000
   41        1.079985      7.923914   1.000000   0.000000
   42        1.253369      8.039695   1.000000   0.000000
   43        1.315910      8.277553   1.000000   0.000000
   44        1.616413      8.486483   1.000000   0.000000
   45        1.790140      8.624085   1.000000   0.000000
   46        2.009472      8.692700   1.000000   0.000000
   47        2.179429      8.809963   1.000000   0.000000
   48        3.171793      8.994223   1.000000   0.000000
   49        3.195427      9.059249   1.000000   0.000000
   50        3.635077      9.157267   1.000000   0.000000
   51        3.727120      9.292939   1.000000   0.000000
   52        3.987350      9.314556   1.000000   0.000000
   53        4.150344      9.687300   1.000000   0.000000
   54        4.217917      9.923238   1.000000   0.000000
   55        9.150722     10.509371   0.000000   0.000000
   56        9.685912     11.069648   0.000000   0.000000
   57       10.644342     11.443914   0.000000   0.000000
   58       10.882797     11.932760   0.000000   0.000000
   59       11.709325     12.541641   0.000000   0.000000
   60       12.106707     12.685500   0.000000   0.000000
   61       12.501954     13.219309   0.000000   0.000000
   62       12.615274     13.393835   0.000000   0.000000
   63       12.888643     13.863352   0.000000   0.000000
   64       13.618210     14.290490   0.000000   0.000000
   65       14.258158     14.847961   0.000000   0.000000
   66       14.737486     15.729905   0.000000   0.000000
   67       14.846164     15.781280   0.000000   0.000000
   68       15.001971     16.159882   0.000000   0.000000
 
  0.3333333E+00  0.5551922E-20 -0.2177408E-14  0.5555556E-01
    1      -55.742822    -49.117300   1.000000   1.000000
    2      -55.740142    -49.115947   1.000000   1.000000
    3      -55.708701    -49.065963   1.000000   1.000000
    4      -55.706766    -49.064085   1.000000   1.000000
    5      -54.332727    -49.057257   1.000000   1.000000
    6      -54.332063    -49.049590   1.000000   1.000000
    7      -54.186911    -49.042218   1.000000   1.000000
    8      -54.185654    -49.038800   1.000000   1.000000
    9      -54.174016    -49.021486   1.000000   1.000000
   10      -54.173364    -49.020012   1.000000   1.000000
   11      -54.158817    -49.018164   1.000000   1.000000
   12      -54.158145    -49.016722   1.000000   1.000000
   13      -43.245068    -43.243975   1.000000   1.000000
   14      -43.244885    -43.243819   1.000000   1.000000
   15      -15.848404    -15.313175   1.000000   1.000000
   16      -15.632547    -15.102802   1.000000   1.000000
   17       -9.112331     -8.784096   1.000000   1.000000
   18       -8.864881     -8.520150   1.000000   1.000000
   19       -8.530659     -8.149609   1.000000   1.000000
   20       -2.837832     -1.415634   1.000000   1.000000
   21       -2.084202     -0.754092   1.000000   1.000000
   22       -1.749488     -0.458762   1.000000   1.000000
   23       -1.701323     -0.258535   1.000000   1.000000
   24       -1.555211      0.012444   1.000000   1.000000
   25       -1.473883      0.262371   1.000000   1.000000
   26       -1.076370      0.713400   1.000000   1.000000
   27       -0.954261      0.966918   1.000000   1.000000
   28       -0.776361      1.312478   1.000000   1.000000
   29       -0.659193      1.720911   1.000000   1.000000
   30       -0.469444      2.200755   1.000000   1.000000
   31       -0.325421      2.441467   1.000000   1.000000
   32       -0.293199      2.716446   1.000000   1.000000
   33       -0.115957      2.821497   1.000000   1.000000
   34       -0.035458      3.096458   1.000000   1.000000
   35        0.127237      3.818338   1.000000   1.000000
   36        0.285230      4.107866   1.000000   1.000000
   37        0.414154      4.198717   1.000000   1.000000
   38        0.712174      4.443298   1.000000   1.000000
   39        0.915470      7.682534   1.000000   0.000000
   40        1.218473      8.003099   1.000000   0.000000
   41        1.335508      8.203607   1.000000   0.000000
   42        1.411567      8.385019   1.000000   0.000000
   43        1.524981      8.401241   1.000000   0.000000
   44        1.689237      8.561359   1.000000   0.000000
   45        1.737791      8.783916   1.000000   0.000000
   46        1.947310      8.868999   1.000000   0.000000
   47        2.256368      8.942102   1.000000   0.000000
   48        2.874572      9.039225   1.000000   0.000000
   49        3.557992      9.221734   1.000000   0.000000
   50        3.650923      9.394231   1.000000   0.000000
   51        4.038911      9.538201   1.000000   0.000000
   52        4.166009      9.930748   1.000000   0.000000
   53        4.549241      9.993066   1.000000   0.000000
   54        4.631522     10.101493   1.000000   0.000000
   55        9.662991     10.650496   0.000000   0.000000
   56       10.173609     11.095882   0.000000   0.000000
   57       10.409940     11.663856   0.000000   0.000000
   58       10.854658     11.909736   0.000000   0.000000
   59       11.703500     12.511862   0.000000   0.000000
   60       12.241713     13.116633   0.000000   0.000000
   61       12.307940     13.268443   0.000000   0.000000
   62       13.038986     13.736511   0.000000   0.000000
   63       13.149806     14.187387   0.000000   0.000000
   64       13.728373     14.596160   0.000000   0.000000
   65       13.931986     14.651268   0.000000   0.000000
   66       14.181920     14.850765   0.000000   0.000000
   67       14.295649     14.997053   0.000000   0.000000
   68       14.967983     15.786780   0.000000   0.000000
 
  0.5000000E+00 -0.3555922E-18  0.2063277E-14  0.2777778E-01
    1      -55.743667    -49.117540   1.000000   1.000000
    2      -55.740126    -49.115731   1.000000   1.000000
    3      -55.708455    -49.065758   1.000000   1.000000
    4      -55.706572    -49.063588   1.000000   1.000000
    5      -54.332956    -49.058918   1.000000   1.000000
    6      -54.332071    -49.049507   1.000000   1.000000
    7      -54.187283    -49.042232   1.000000   1.000000
    8      -54.185621    -49.038593   1.000000   1.000000
    9      -54.174188    -49.021124   1.000000   1.000000
   10      -54.173355    -49.019291   1.000000   1.000000
   11      -54.158833    -49.018470   1.000000   1.000000
   12      -54.158032    -49.016967   1.000000   1.000000
   13      -43.244808    -43.243642   1.000000   1.000000
   14      -43.244637    -43.243557   1.000000   1.000000
   15      -15.855598    -15.319915   1.000000   1.000000
   16      -15.565363    -15.037458   1.000000   1.000000
   17       -9.033310     -8.710988   1.000000   1.000000
   18       -8.657831     -8.300637   1.000000   1.000000
   19       -8.566536     -8.205100   1.000000   1.000000
   20       -2.991102     -1.648350   1.000000   1.000000
   21       -2.172288     -1.000663   1.000000   1.000000
   22       -2.007666     -0.741246   1.000000   1.000000
   23       -1.694239     -0.231626   1.000000   1.000000
   24       -1.665225      0.096052   1.000000   1.000000
   25       -1.528001      0.256329   1.000000   1.000000
   26       -1.284272      0.351866   1.000000   1.000000
   27       -1.067455      0.971687   1.000000   1.000000
   28       -1.003668      1.224650   1.000000   1.000000
   29       -0.731569      1.751359   1.000000   1.000000
   30       -0.561639      2.267751   1.000000   1.000000
   31       -0.365282      2.425972   1.000000   1.000000
   32       -0.341639      2.596066   1.000000   1.000000
   33       -0.153914      2.739021   1.000000   1.000000
   34       -0.030940      2.873653   1.000000   1.000000
   35        0.120536      4.066770   1.000000   1.000000
   36        0.277182      4.121145   1.000000   1.000000
   37        0.451516      4.248809   1.000000   1.000000
   38        0.476252      4.352930   1.000000   1.000000
   39        1.080039      7.603424   1.000000   0.000000
   40        1.275359      8.217940   1.000000   0.000000
   41        1.403733      8.276888   1.000000   0.000000
   42        1.468670      8.285305   1.000000   0.000000
   43        1.631205      8.420592   1.000000   0.000000
   44        1.744066      8.520111   1.000000   0.000000
   45        1.924401      8.732624   1.000000   0.000000
   46        2.032610      8.796004   1.000000   0.000000
   47        2.192779      9.108267   1.000000   0.000000
   48        2.882038      9.222411   1.000000   0.000000
   49        3.510081      9.381737   1.000000   0.000000
   50        3.622530      9.448451   1.000000   0.000000
   51        4.421367      9.613185   1.000000   0.000000
   52        4.467786      9.964477   1.000000   0.000000
   53        4.572359     10.294623   1.000000   0.000000
   54        4.657273     10.447895   1.000000   0.000000
   55        9.460647     10.695340   0.000000   0.000000
   56       10.049590     11.098449   0.000000   0.000000
   57       10.595407     11.572660   0.000000   0.000000
   58       11.389260     12.131201   0.000000   0.000000
   59       11.400018     12.743572   0.000000   0.000000
   60       11.980732     12.783273   0.000000   0.000000
   61       12.084974     13.019462   0.000000   0.000000
   62       12.384063     13.174382   0.000000   0.000000
   63       13.073088     13.929172   0.000000   0.000000
   64       13.274112     14.188910   0.000000   0.000000
   65       13.740753     14.441383   0.000000   0.000000
   66       14.503017     15.315288   0.000000   0.000000
   67       14.767336     15.430159   0.000000   0.000000
   68       14.885995     15.611748   0.000000   0.000000
 
  0.1666667E+00  0.1666667E+00 -0.4904158E-15  0.2777778E-01
    1      -55.741079    -49.116716   1.000000   1.000000
    2      -55.741048    -49.116499   1.000000   1.000000
    3      -55.708894    -49.066156   1.000000   1.000000
    4      -55.706969    -49.064603   1.000000   1.000000
    5      -54.332305    -49.053406   1.000000   1.000000
    6      -54.332236    -49.052413   1.000000   1.000000
    7      -54.186183    -49.040908   1.000000   1.000000
    8      -54.186038    -49.039650   1.000000   1.000000
    9      -54.173825    -49.022211   1.000000   1.000000
   10      -54.173388    -49.020545   1.000000   1.000000
   11      -54.159069    -49.017980   1.000000   1.000000
   12      -54.157950    -49.016507   1.000000   1.000000
   13      -43.245321    -43.244312   1.000000   1.000000
   14      -43.245148    -43.244121   1.000000   1.000000
   15      -15.782858    -15.250835   1.000000   1.000000
   16      -15.759453    -15.225400   1.000000   1.000000
   17       -9.204644     -8.860650   1.000000   1.000000
   18       -9.010206     -8.679600   1.000000   1.000000
   19       -8.550704     -8.150227   1.000000   1.000000
   20       -2.414482     -0.870083   1.000000   1.000000
   21       -2.338968     -0.619933   1.000000   1.000000
   22       -1.766654     -0.352297   1.000000   1.000000
   23       -1.451891     -0.178961   1.000000   1.000000
   24       -1.358120      0.007121   1.000000   1.000000
   25       -1.308146      0.163018   1.000000   1.000000
   26       -0.989762      0.820341   1.000000   1.000000
   27       -0.725000      1.132684   1.000000   1.000000
   28       -0.558338      1.775157   1.000000   1.000000
   29       -0.451076      1.938118   1.000000   1.000000
   30       -0.410178      2.078394   1.000000   1.000000
   31       -0.326808      2.285238   1.000000   1.000000
   32       -0.158810      2.559941   1.000000   1.000000
   33       -0.032715      2.882049   1.000000   1.000000
   34        0.195783      3.054863   1.000000   1.000000
   35        0.277872      3.847053   1.000000   1.000000
   36        0.344842      3.989402   1.000000   1.000000
   37        0.445027      4.325521   1.000000   1.000000
   38        0.681073      4.563669   1.000000   1.000000
   39        0.870776      7.665613   1.000000   0.000000
   40        1.031072      7.831017   1.000000   0.000000
   41        1.203792      8.019664   1.000000   0.000000
   42        1.226145      8.092332   1.000000   0.000000
   43        1.339572      8.212348   1.000000   0.000000
   44        1.616498      8.509639   1.000000   0.000000
   45        1.784600      8.607605   1.000000   0.000000
   46        2.090001      8.778941   1.000000   0.000000
   47        2.243853      8.891717   1.000000   0.000000
   48        2.870042      9.050867   1.000000   0.000000
   49        3.127774      9.121170   1.000000   0.000000
   50        3.486715      9.208176   1.000000   0.000000
   51        3.533399      9.413464   1.000000   0.000000
   52        3.855097      9.590822   1.000000   0.000000
   53        4.325577      9.741975   1.000000   0.000000
   54        4.578862     10.174836   1.000000   0.000000
   55        9.779316     11.012293   0.000000   0.000000
   56       10.325054     11.434535   0.000000   0.000000
   57       10.762232     11.953733   0.000000   0.000000
   58       11.487329     12.284127   0.000000   0.000000
   59       11.994436     12.720572   0.000000   0.000000
   60       12.230027     12.838444   0.000000   0.000000
   61       12.311918     13.213078   0.000000   0.000000
   62       12.726049     13.420688   0.000000   0.000000
   63       12.971526     13.652159   0.000000   0.000000
   64       13.020820     13.815706   0.000000   0.000000
   65       13.473261     14.458032   0.000000   0.000000
   66       14.068668     14.901681   0.000000   0.000000
   67       14.187740     15.249227   0.000000   0.000000
   68       14.651829     15.635166   0.000000   0.000000
 
  0.3333333E+00  0.1666667E+00  0.5162925E-16  0.5555556E-01
    1      -55.742798    -49.117104   1.000000   1.000000
    2      -55.741025    -49.116124   1.000000   1.000000
    3      -55.708192    -49.065353   1.000000   1.000000
    4      -55.706726    -49.063946   1.000000   1.000000
    5      -54.332731    -49.057198   1.000000   1.000000
    6      -54.332266    -49.052702   1.000000   1.000000
    7      -54.186877    -49.040366   1.000000   1.000000
    8      -54.186047    -49.038692   1.000000   1.000000
    9      -54.174355    -49.022153   1.000000   1.000000
   10      -54.173165    -49.019514   1.000000   1.000000
   11      -54.159181    -49.018799   1.000000   1.000000
   12      -54.157580    -49.016429   1.000000   1.000000
   13      -43.244871    -43.243801   1.000000   1.000000
   14      -43.244735    -43.243676   1.000000   1.000000
   15      -15.788095    -15.254588   1.000000   1.000000
   16      -15.642477    -15.112706   1.000000   1.000000
   17       -9.026707     -8.700133   1.000000   1.000000
   18       -8.810050     -8.453391   1.000000   1.000000
   19       -8.481065     -8.092313   1.000000   1.000000
   20       -2.817157     -1.369705   1.000000   1.000000
   21       -2.348805     -0.762555   1.000000   1.000000
   22       -1.888042     -0.513603   1.000000   1.000000
   23       -1.681627     -0.366653   1.000000   1.000000
   24       -1.566645     -0.139661   1.000000   1.000000
   25       -1.387962      0.194772   1.000000   1.000000
   26       -1.035574      0.831119   1.000000   1.000000
   27       -0.943987      1.132164   1.000000   1.000000
   28       -0.801952      1.211766   1.000000   1.000000
   29       -0.703479      1.568830   1.000000   1.000000
   30       -0.512852      2.063094   1.000000   1.000000
   31       -0.329326      2.182621   1.000000   1.000000
   32       -0.234401      2.335935   1.000000   1.000000
   33       -0.081330      2.679337   1.000000   1.000000
   34       -0.024544      2.798459   1.000000   1.000000
   35        0.181590      3.967958   1.000000   1.000000
   36        0.316077      4.176910   1.000000   1.000000
   37        0.448528      4.334768   1.000000   1.000000
   38        0.657507      4.429140   1.000000   1.000000
   39        0.926238      7.560117   1.000000   0.000000
   40        1.087461      7.831771   1.000000   0.000000
   41        1.280524      8.074682   1.000000   0.000000
   42        1.455854      8.247660   1.000000   0.000000
   43        1.555651      8.337173   1.000000   0.000000
   44        1.678036      8.494627   1.000000   0.000000
   45        1.751507      8.588052   1.000000   0.000000
   46        2.021161      8.911654   1.000000   0.000000
   47        2.192372      8.971470   1.000000   0.000000
   48        2.948876      9.145980   1.000000   0.000000
   49        3.138816      9.222509   1.000000   0.000000
   50        3.311291      9.401602   1.000000   0.000000
   51        3.645381      9.520187   1.000000   0.000000
   52        3.944321      9.699312   1.000000   0.000000
   53        4.319922     10.022081   1.000000   0.000000
   54        4.637176     10.169633   1.000000   0.000000
   55       10.222538     11.568644   0.000000   0.000000
   56       10.635731     11.795400   0.000000   0.000000
   57       11.057385     11.930829   0.000000   0.000000
   58       11.123132     12.282307   0.000000   0.000000
   59       11.621398     12.496131   0.000000   0.000000
   60       12.164652     12.976492   0.000000   0.000000
   61       12.392769     13.402256   0.000000   0.000000
   62       12.726919     13.587900   0.000000   0.000000
   63       13.010623     13.914394   0.000000   0.000000
   64       13.354503     14.258500   0.000000   0.000000
   65       13.808462     14.615864   0.000000   0.000000
   66       13.985248     14.735499   0.000000   0.000000
   67       14.286764     14.972703   0.000000   0.000000
   68       14.894559     15.618979   0.000000   0.000000
 
  0.5000000E+00  0.1666667E+00  0.4327218E-14  0.5555556E-01
    1      -55.743633    -49.117331   1.000000   1.000000
    2      -55.741004    -49.115907   1.000000   1.000000
    3      -55.707943    -49.065109   1.000000   1.000000
    4      -55.706541    -49.063475   1.000000   1.000000
    5      -54.332954    -49.058849   1.000000   1.000000
    6      -54.332269    -49.052657   1.000000   1.000000
    7      -54.187255    -49.040282   1.000000   1.000000
    8      -54.186017    -49.038481   1.000000   1.000000
    9      -54.174656    -49.021984   1.000000   1.000000
   10      -54.173016    -49.019457   1.000000   1.000000
   11      -54.159163    -49.018858   1.000000   1.000000
   12      -54.157480    -49.016439   1.000000   1.000000
   13      -43.244632    -43.243514   1.000000   1.000000
   14      -43.244505    -43.243451   1.000000   1.000000
   15      -15.796151    -15.262329   1.000000   1.000000
   16      -15.576440    -15.048684   1.000000   1.000000
   17       -8.955426     -8.632354   1.000000   1.000000
   18       -8.603482     -8.232345   1.000000   1.000000
   19       -8.523884     -8.147664   1.000000   1.000000
   20       -2.976519     -1.573419   1.000000   1.000000
   21       -2.331618     -0.899568   1.000000   1.000000
   22       -2.054424     -0.628942   1.000000   1.000000
   23       -1.827094     -0.564811   1.000000   1.000000
   24       -1.629619     -0.099194   1.000000   1.000000
   25       -1.539323      0.001947   1.000000   1.000000
   26       -1.154321      0.809870   1.000000   1.000000
   27       -0.966448      1.039722   1.000000   1.000000
   28       -0.907541      1.172091   1.000000   1.000000
   29       -0.739133      1.633603   1.000000   1.000000
   30       -0.593841      1.944050   1.000000   1.000000
   31       -0.378575      2.171281   1.000000   1.000000
   32       -0.271596      2.396136   1.000000   1.000000
   33       -0.146398      2.483999   1.000000   1.000000
   34       -0.035690      2.825874   1.000000   1.000000
   35        0.122729      4.117554   1.000000   1.000000
   36        0.387092      4.181507   1.000000   1.000000
   37        0.470419      4.252918   1.000000   1.000000
   38        0.540745      4.335691   1.000000   1.000000
   39        0.735360      7.591587   1.000000   0.000000
   40        1.285596      7.724057   1.000000   0.000000
   41        1.416863      8.043067   1.000000   0.000000
   42        1.514130      8.165231   1.000000   0.000000
   43        1.613434      8.353941   1.000000   0.000000
   44        1.753048      8.609283   1.000000   0.000000
   45        1.897466      8.785300   1.000000   0.000000
   46        2.048061      9.023508   1.000000   0.000000
   47        2.145310      9.083926   1.000000   0.000000
   48        3.071570      9.176719   1.000000   0.000000
   49        3.202360      9.349516   1.000000   0.000000
   50        3.342747      9.498040   1.000000   0.000000
   51        3.754688      9.603126   1.000000   0.000000
   52        4.011848      9.659861   1.000000   0.000000
   53        4.201005      9.920460   1.000000   0.000000
   54        4.492276     10.128382   1.000000   0.000000
   55       10.014241     11.393606   0.000000   0.000000
   56       10.568905     11.726797   0.000000   0.000000
   57       10.885213     11.787999   0.000000   0.000000
   58       11.003336     12.241499   0.000000   0.000000
   59       11.563281     12.433413   0.000000   0.000000
   60       11.968958     12.875219   0.000000   0.000000
   61       12.398935     13.186745   0.000000   0.000000
   62       12.573821     13.552761   0.000000   0.000000
   63       12.724011     13.780381   0.000000   0.000000
   64       13.309363     14.315276   0.000000   0.000000
   65       13.671108     14.606033   0.000000   0.000000
   66       14.498733     15.214701   0.000000   0.000000
   67       14.806230     15.738171   0.000000   0.000000
   68       15.326652     16.171008   0.000000   0.000000
 
 -0.3333333E+00  0.1666667E+00 -0.2630230E-14  0.5555556E-01
    1      -55.742784    -49.117089   1.000000   1.000000
    2      -55.741011    -49.116110   1.000000   1.000000
    3      -55.708196    -49.065279   1.000000   1.000000
    4      -55.706708    -49.063988   1.000000   1.000000
    5      -54.332718    -49.057206   1.000000   1.000000
    6      -54.332252    -49.052668   1.000000   1.000000
    7      -54.186870    -49.040309   1.000000   1.000000
    8      -54.186030    -49.038700   1.000000   1.000000
    9      -54.174524    -49.022335   1.000000   1.000000
   10      -54.172958    -49.019389   1.000000   1.000000
   11      -54.159029    -49.018702   1.000000   1.000000
   12      -54.157722    -49.016507   1.000000   1.000000
   13      -43.244861    -43.243795   1.000000   1.000000
   14      -43.244725    -43.243670   1.000000   1.000000
   15      -15.788347    -15.254882   1.000000   1.000000
   16      -15.642486    -15.112714   1.000000   1.000000
   17       -9.041755     -8.714535   1.000000   1.000000
   18       -8.774316     -8.419303   1.000000   1.000000
   19       -8.504683     -8.114520   1.000000   1.000000
   20       -2.813481     -1.327809   1.000000   1.000000
   21       -2.327416     -0.707371   1.000000   1.000000
   22       -1.908356     -0.537076   1.000000   1.000000
   23       -1.680058     -0.355635   1.000000   1.000000
   24       -1.564849     -0.174649   1.000000   1.000000
   25       -1.427972      0.128842   1.000000   1.000000
   26       -1.025236      0.738606   1.000000   1.000000
   27       -0.855672      1.110723   1.000000   1.000000
   28       -0.784341      1.327969   1.000000   1.000000
   29       -0.614263      1.573243   1.000000   1.000000