# energy dos(up) dos(down)
-6.410819999999999652e+01 0.000000000000000000e+00 -0.000000000000000000e+00
-6.406819999999999027e+01 0.000000000000000000e+00 -0.000000000000000000e+00
-6.402819999999999823e+01 0.000000000000000000e+00 -0.000000000000000000e+00
-6.398819999999999197e+01 0.000000000000000000e+00 -0.000000000000000000e+00
-6.394819999999999993e+01 0.000000000000000000e+00 -0.000000000000000000e+00
-6.390829999999999700e+01 0.000000000000000000e+00 -0.000000000000000000e+00
-6.386829999999999075e+01 0.000000000000000000e+00 -0.000000000000000000e+00
-6.382829999999999870e+01 0.000000000000000000e+00 -0.000000000000000000e+00
-6.378829999999999245e+01 0.000000000000000000e+00 -0.000000000000000000e+00
-6.374830000000000041e+01 0.000000000000000000e+00 -0.000000000000000000e+00
-6.370829999999999416e+01 0.000000000000000000e+00 -0.000000000000000000e+00
-6.366839999999999122e+01 0.000000000000000000e+00 -0.000000000000000000e+00
-6.362839999999999918e+01 0.000000000000000000e+00 -0.000000000000000000e+00
-6.358839999999999293e+01 0.000000000000000000e+00 -0.000000000000000000e+00
-6.354840000000000089e+01 0.000000000000000000e+00 -0.000000000000000000e+00
-6.350839999999999463e+01 0.000000000000000000e+00 -0.000000000000000000e+00
-6.346840000000000259e+01 0.000000000000000000e+00 -0.000000000000000000e+00
-6.342849999999999966e+01 0.000000000000000000e+00 -0.000000000000000000e+00
-6.338849999999999341e+01 0.000000000000000000e+00 -0.000000000000000000e+00
-6.334850000000000136e+01 0.000000000000000000e+00 -0.000000000000000000e+00
-6.330849999999999511e+01 0.000000000000000000e+00 -0.000000000000000000e+00
-6.326850000000000307e+01 0.000000000000000000e+00 -0.000000000000000000e+00
-6.322849999999999682e+01 0.000000000000000000e+00 -0.000000000000000000e+00
-6.318849999999999056e+01 0.000000000000000000e+00 -0.000000000000000000e+00
-6.314860000000000184e+01 0.000000000000000000e+00 -0.000000000000000000e+00
-6.310859999999999559e+01 0.000000000000000000e+00 -0.000000000000000000e+00
-6.306860000000000355e+01 0.000000000000000000e+00 -0.000000000000000000e+00
-6.302859999999999729e+01 0.000000000000000000e+00 -0.000000000000000000e+00
-6.298859999999999104e+01 0.000000000000000000e+00 -0.000000000000000000e+00
-6.294859999999999900e+01 0.000000000000000000e+00 -0.000000000000000000e+00
-6.290869999999999607e+01 0.000000000000000000e+00 -0.000000000000000000e+00
-6.286870000000000402e+01 0.000000000000000000e+00 -0.000000000000000000e+00
-6.282869999999999777e+01 0.000000000000000000e+00 -0.000000000000000000e+00
-6.278869999999999152e+01 0.000000000000000000e+00 -0.000000000000000000e+00
-6.274869999999999948e+01 0.000000000000000000e+00 -0.000000000000000000e+00
-6.270869999999999322e+01 0.000000000000000000e+00 -0.000000000000000000e+00
-6.266879999999999029e+01 0.000000000000000000e+00 -0.000000000000000000e+00
-6.262879999999999825e+01 0.000000000000000000e+00 -0.000000000000000000e+00
-6.258879999999999200e+01 0.000000000000000000e+00 -0.000000000000000000e+00
-6.254879999999999995e+01 0.000000000000000000e+00 -0.000000000000000000e+00
-6.250879999999999370e+01 0.000000000000000000e+00 -0.000000000000000000e+00
-6.246880000000000166e+01 0.000000000000000000e+00 -0.000000000000000000e+00
-6.242879999999999541e+01 0.000000000000000000e+00 -0.000000000000000000e+00
-6.238889999999999247e+01 0.000000000000000000e+00 -0.000000000000000000e+00
-6.234890000000000043e+01 0.000000000000000000e+00 -0.000000000000000000e+00
-6.230889999999999418e+01 0.000000000000000000e+00 -0.000000000000000000e+00
-6.226890000000000214e+01 0.000000000000000000e+00 -0.000000000000000000e+00
-6.222889999999999588e+01 0.000000000000000000e+00 -0.000000000000000000e+00
-6.218890000000000384e+01 0.000000000000000000e+00 -0.000000000000000000e+00
-6.214900000000000091e+01 0.000000000000000000e+00 -0.000000000000000000e+00
-6.210899999999999466e+01 0.000000000000000000e+00 -0.000000000000000000e+00
-6.206900000000000261e+01 0.000000000000000000e+00 -0.000000000000000000e+00
-6.202899999999999636e+01 0.000000000000000000e+00 -0.000000000000000000e+00
-6.198899999999999011e+01 0.000000000000000000e+00 -0.000000000000000000e+00
-6.194899999999999807e+01 0.000000000000000000e+00 -0.000000000000000000e+00
-6.190909999999999513e+01 0.000000000000000000e+00 -0.000000000000000000e+00
-6.186910000000000309e+01 0.000000000000000000e+00 -0.000000000000000000e+00
-6.182909999999999684e+01 0.000000000000000000e+00 -0.000000000000000000e+00
-6.178909999999999059e+01 0.000000000000000000e+00 -0.000000000000000000e+00
-6.174909999999999854e+01 0.000000000000000000e+00 -0.000000000000000000e+00
-6.170909999999999229e+01 0.000000000000000000e+00 -0.000000000000000000e+00
-6.166910000000000025e+01 0.000000000000000000e+00 -0.000000000000000000e+00
-6.162919999999999732e+01 0.000000000000000000e+00 -0.000000000000000000e+00
-6.158919999999999106e+01 0.000000000000000000e+00 -0.000000000000000000e+00
-6.154919999999999902e+01 0.000000000000000000e+00 -0.000000000000000000e+00
-6.150919999999999277e+01 0.000000000000000000e+00 -0.000000000000000000e+00
-6.146920000000000073e+01 0.000000000000000000e+00 -0.000000000000000000e+00
-6.142919999999999447e+01 0.000000000000000000e+00 -0.000000000000000000e+00
-6.138929999999999154e+01 0.000000000000000000e+00 -0.000000000000000000e+00
-6.134929999999999950e+01 0.000000000000000000e+00 -0.000000000000000000e+00
-6.130929999999999325e+01 0.000000000000000000e+00 -0.000000000000000000e+00
-6.126930000000000121e+01 0.000000000000000000e+00 -0.000000000000000000e+00
-6.122929999999999495e+01 0.000000000000000000e+00 -0.000000000000000000e+00
-6.118930000000000291e+01 0.000000000000000000e+00 -0.000000000000000000e+00
-6.114939999999999998e+01 0.000000000000000000e+00 -0.000000000000000000e+00
-6.110939999999999372e+01 0.000000000000000000e+00 -0.000000000000000000e+00
-6.106940000000000168e+01 0.000000000000000000e+00 -0.000000000000000000e+00
-6.102939999999999543e+01 0.000000000000000000e+00 -0.000000000000000000e+00
-6.098940000000000339e+01 0.000000000000000000e+00 -0.000000000000000000e+00
-6.094939999999999714e+01 0.000000000000000000e+00 -0.000000000000000000e+00
-6.090939999999999088e+01 0.000000000000000000e+00 -0.000000000000000000e+00
-6.086950000000000216e+01 0.000000000000000000e+00 -0.000000000000000000e+00
-6.082949999999999591e+01 0.000000000000000000e+00 -0.000000000000000000e+00
-6.078950000000000387e+01 0.000000000000000000e+00 -0.000000000000000000e+00
-6.074949999999999761e+01 0.000000000000000000e+00 -0.000000000000000000e+00
-6.070949999999999136e+01 0.000000000000000000e+00 -0.000000000000000000e+00
-6.066949999999999932e+01 0.000000000000000000e+00 -0.000000000000000000e+00
-6.062959999999999638e+01 2.999999999999999737e-04 -0.000000000000000000e+00
-6.058959999999999013e+01 2.560000000000000123e-02 -0.000000000000000000e+00
-6.054959999999999809e+01 7.941000000000000281e-01 -0.000000000000000000e+00
-6.050959999999999184e+01 7.939300000000000246e+00 -0.000000000000000000e+00
-6.046959999999999980e+01 2.793740000000000023e+01 -0.000000000000000000e+00
-6.042959999999999354e+01 3.805010000000000048e+01 -0.000000000000000000e+00
-6.038969999999999061e+01 2.073699999999999832e+01 -0.000000000000000000e+00
-6.034969999999999857e+01 4.251900000000000013e+00 -0.000000000000000000e+00
-6.030969999999999231e+01 2.972000000000000197e-01 -0.000000000000000000e+00
-6.026970000000000027e+01 6.499999999999999702e-03 -0.000000000000000000e+00
-6.022969999999999402e+01 0.000000000000000000e+00 -0.000000000000000000e+00
-6.018970000000000198e+01 0.000000000000000000e+00 -0.000000000000000000e+00
-6.014969999999999573e+01 0.000000000000000000e+00 -0.000000000000000000e+00
-6.010979999999999279e+01 0.000000000000000000e+00 -0.000000000000000000e+00
-6.006980000000000075e+01 0.000000000000000000e+00 -0.000000000000000000e+00
-6.002979999999999450e+01 0.000000000000000000e+00 -0.000000000000000000e+00
-5.998980000000000246e+01 0.000000000000000000e+00 -0.000000000000000000e+00
-5.994979999999999620e+01 0.000000000000000000e+00 -0.000000000000000000e+00
-5.990980000000000416e+01 0.000000000000000000e+00 -0.000000000000000000e+00
-5.986990000000000123e+01 0.000000000000000000e+00 -0.000000000000000000e+00
-5.982989999999999498e+01 0.000000000000000000e+00 -0.000000000000000000e+00
-5.978990000000000293e+01 0.000000000000000000e+00 -0.000000000000000000e+00
-5.974989999999999668e+01 0.000000000000000000e+00 -0.000000000000000000e+00
-5.970989999999999043e+01 0.000000000000000000e+00 -0.000000000000000000e+00
-5.966989999999999839e+01 0.000000000000000000e+00 -0.000000000000000000e+00
-5.962989999999999213e+01 0.000000000000000000e+00 -0.000000000000000000e+00
-5.959000000000000341e+01 0.000000000000000000e+00 -0.000000000000000000e+00
-5.954999999999999716e+01 0.000000000000000000e+00 -0.000000000000000000e+00
-5.950999999999999091e+01 0.000000000000000000e+00 -0.000000000000000000e+00
-5.946999999999999886e+01 0.000000000000000000e+00 -0.000000000000000000e+00
-5.942999999999999261e+01 0.000000000000000000e+00 -0.000000000000000000e+00
-5.939000000000000057e+01 0.000000000000000000e+00 -0.000000000000000000e+00
-5.935009999999999764e+01 0.000000000000000000e+00 -0.000000000000000000e+00
-5.931009999999999138e+01 0.000000000000000000e+00 -0.000000000000000000e+00
-5.927009999999999934e+01 0.000000000000000000e+00 -0.000000000000000000e+00
-5.923009999999999309e+01 1.000000000000000048e-04 -0.000000000000000000e+00
-5.919010000000000105e+01 8.899999999999999925e-03 -0.000000000000000000e+00
-5.915009999999999479e+01 3.592000000000000193e-01 -0.000000000000000000e+00
-5.911019999999999186e+01 4.402400000000000091e+00 -0.000000000000000000e+00
-5.907019999999999982e+01 1.671630000000000038e+01 -0.000000000000000000e+00
-5.903019999999999357e+01 2.006879999999999953e+01 -0.000000000000000000e+00
-5.899020000000000152e+01 9.072400000000000020e+00 -0.000000000000000000e+00
-5.895019999999999527e+01 1.561849999999999916e+01 -0.000000000000000000e+00
-5.891020000000000323e+01 4.928439999999999799e+01 -0.000000000000000000e+00
-5.887019999999999698e+01 5.746940000000000026e+01 -0.000000000000000000e+00
-5.883029999999999404e+01 2.357989999999999853e+01 -0.000000000000000000e+00
-5.879030000000000200e+01 3.339100000000000179e+00 -0.000000000000000000e+00
-5.875029999999999575e+01 1.570000000000000007e-01 -0.000000000000000000e+00
-5.871030000000000371e+01 2.299999999999999961e-03 -0.000000000000000000e+00
-5.867029999999999745e+01 0.000000000000000000e+00 -0.000000000000000000e+00
-5.863029999999999120e+01 0.000000000000000000e+00 -0.000000000000000000e+00
-5.859040000000000248e+01 0.000000000000000000e+00 -0.000000000000000000e+00
-5.855039999999999623e+01 0.000000000000000000e+00 -0.000000000000000000e+00
-5.851040000000000418e+01 0.000000000000000000e+00 -0.000000000000000000e+00
-5.847039999999999793e+01 0.000000000000000000e+00 -0.000000000000000000e+00
-5.843039999999999168e+01 0.000000000000000000e+00 -0.000000000000000000e+00
-5.839039999999999964e+01 0.000000000000000000e+00 -0.000000000000000000e+00
-5.835049999999999670e+01 0.000000000000000000e+00 -0.000000000000000000e+00
-5.831049999999999045e+01 0.000000000000000000e+00 -0.000000000000000000e+00
-5.827049999999999841e+01 0.000000000000000000e+00 -0.000000000000000000e+00
-5.823049999999999216e+01 0.000000000000000000e+00 -0.000000000000000000e+00
-5.819050000000000011e+01 0.000000000000000000e+00 -0.000000000000000000e+00
-5.815049999999999386e+01 0.000000000000000000e+00 -0.000000000000000000e+00
-5.811050000000000182e+01 0.000000000000000000e+00 -0.000000000000000000e+00
-5.807059999999999889e+01 0.000000000000000000e+00 -0.000000000000000000e+00
-5.803059999999999263e+01 0.000000000000000000e+00 -0.000000000000000000e+00
-5.799060000000000059e+01 0.000000000000000000e+00 -0.000000000000000000e+00
-5.795059999999999434e+01 0.000000000000000000e+00 -0.000000000000000000e+00
-5.791060000000000230e+01 0.000000000000000000e+00 -0.000000000000000000e+00
-5.787059999999999604e+01 0.000000000000000000e+00 -0.000000000000000000e+00
-5.783069999999999311e+01 0.000000000000000000e+00 -0.000000000000000000e+00
-5.779070000000000107e+01 0.000000000000000000e+00 -0.000000000000000000e+00
-5.775069999999999482e+01 0.000000000000000000e+00 -0.000000000000000000e+00
-5.771070000000000277e+01 0.000000000000000000e+00 -0.000000000000000000e+00
-5.767069999999999652e+01 0.000000000000000000e+00 -0.000000000000000000e+00
-5.763069999999999027e+01 0.000000000000000000e+00 -0.000000000000000000e+00
-5.759080000000000155e+01 0.000000000000000000e+00 -0.000000000000000000e+00
-5.755079999999999529e+01 0.000000000000000000e+00 -0.000000000000000000e+00
-5.751080000000000325e+01 0.000000000000000000e+00 -0.000000000000000000e+00
-5.747079999999999700e+01 0.000000000000000000e+00 -0.000000000000000000e+00
-5.743079999999999075e+01 0.000000000000000000e+00 -0.000000000000000000e+00
-5.739079999999999870e+01 0.000000000000000000e+00 -0.000000000000000000e+00
-5.735079999999999245e+01 0.000000000000000000e+00 -0.000000000000000000e+00
-5.731090000000000373e+01 0.000000000000000000e+00 -0.000000000000000000e+00
-5.727089999999999748e+01 0.000000000000000000e+00 -0.000000000000000000e+00
-5.723089999999999122e+01 0.000000000000000000e+00 -0.000000000000000000e+00
-5.719089999999999918e+01 0.000000000000000000e+00 -0.000000000000000000e+00
-5.715089999999999293e+01 0.000000000000000000e+00 -0.000000000000000000e+00
-5.711090000000000089e+01 0.000000000000000000e+00 -0.000000000000000000e+00
-5.707099999999999795e+01 0.000000000000000000e+00 -0.000000000000000000e+00
-5.703099999999999170e+01 0.000000000000000000e+00 -0.000000000000000000e+00
-5.699099999999999966e+01 0.000000000000000000e+00 -0.000000000000000000e+00
-5.695099999999999341e+01 0.000000000000000000e+00 -0.000000000000000000e+00
-5.691100000000000136e+01 0.000000000000000000e+00 -0.000000000000000000e+00
-5.687099999999999511e+01 0.000000000000000000e+00 -0.000000000000000000e+00
-5.683109999999999218e+01 0.000000000000000000e+00 -0.000000000000000000e+00
-5.679110000000000014e+01 0.000000000000000000e+00 -0.000000000000000000e+00
-5.675109999999999388e+01 0.000000000000000000e+00 -0.000000000000000000e+00
-5.671110000000000184e+01 0.000000000000000000e+00 -0.000000000000000000e+00
-5.667109999999999559e+01 0.000000000000000000e+00 -0.000000000000000000e+00
-5.663110000000000355e+01 0.000000000000000000e+00 -0.000000000000000000e+00
-5.659109999999999729e+01 0.000000000000000000e+00 -0.000000000000000000e+00
-5.655119999999999436e+01 0.000000000000000000e+00 -0.000000000000000000e+00
-5.651120000000000232e+01 0.000000000000000000e+00 -0.000000000000000000e+00
-5.647119999999999607e+01 0.000000000000000000e+00 -0.000000000000000000e+00
-5.643120000000000402e+01 0.000000000000000000e+00 -0.000000000000000000e+00
-5.639119999999999777e+01 0.000000000000000000e+00 -0.000000000000000000e+00
-5.635119999999999152e+01 0.000000000000000000e+00 -0.000000000000000000e+00
-5.631130000000000280e+01 0.000000000000000000e+00 -0.000000000000000000e+00
-5.627129999999999654e+01 0.000000000000000000e+00 -0.000000000000000000e+00
-5.623129999999999029e+01 0.000000000000000000e+00 -0.000000000000000000e+00
-5.619129999999999825e+01 0.000000000000000000e+00 -0.000000000000000000e+00
-5.615129999999999200e+01 0.000000000000000000e+00 -0.000000000000000000e+00
-5.611129999999999995e+01 0.000000000000000000e+00 -0.000000000000000000e+00
-5.607129999999999370e+01 0.000000000000000000e+00 -0.000000000000000000e+00
-5.603139999999999077e+01 0.000000000000000000e+00 -0.000000000000000000e+00
-5.599139999999999873e+01 0.000000000000000000e+00 -0.000000000000000000e+00
-5.595139999999999247e+01 0.000000000000000000e+00 -0.000000000000000000e+00
-5.591140000000000043e+01 0.000000000000000000e+00 -0.000000000000000000e+00
-5.587139999999999418e+01 0.000000000000000000e+00 -0.000000000000000000e+00
-5.583140000000000214e+01 0.000000000000000000e+00 -0.000000000000000000e+00
-5.579149999999999920e+01 0.000000000000000000e+00 -0.000000000000000000e+00
-5.575149999999999295e+01 0.000000000000000000e+00 -0.000000000000000000e+00
-5.571150000000000091e+01 0.000000000000000000e+00 -0.000000000000000000e+00
-5.567149999999999466e+01 0.000000000000000000e+00 -0.000000000000000000e+00
-5.563150000000000261e+01 0.000000000000000000e+00 -0.000000000000000000e+00
-5.559149999999999636e+01 0.000000000000000000e+00 -0.000000000000000000e+00
-5.555159999999999343e+01 0.000000000000000000e+00 -0.000000000000000000e+00
-5.551160000000000139e+01 0.000000000000000000e+00 -0.000000000000000000e+00
-5.547159999999999513e+01 0.000000000000000000e+00 -0.000000000000000000e+00
-5.543160000000000309e+01 0.000000000000000000e+00 -0.000000000000000000e+00
-5.539159999999999684e+01 0.000000000000000000e+00 -0.000000000000000000e+00
-5.535159999999999059e+01 0.000000000000000000e+00 -0.000000000000000000e+00
-5.531159999999999854e+01 0.000000000000000000e+00 -0.000000000000000000e+00
-5.527169999999999561e+01 0.000000000000000000e+00 -0.000000000000000000e+00
-5.523170000000000357e+01 0.000000000000000000e+00 -0.000000000000000000e+00
-5.519169999999999732e+01 0.000000000000000000e+00 -0.000000000000000000e+00
-5.515169999999999106e+01 0.000000000000000000e+00 -0.000000000000000000e+00
-5.511169999999999902e+01 0.000000000000000000e+00 -0.000000000000000000e+00
-5.507169999999999277e+01 0.000000000000000000e+00 -0.000000000000000000e+00
-5.503180000000000405e+01 0.000000000000000000e+00 -0.000000000000000000e+00
-5.499179999999999779e+01 0.000000000000000000e+00 -0.000000000000000000e+00
-5.495179999999999154e+01 0.000000000000000000e+00 -0.000000000000000000e+00
-5.491179999999999950e+01 0.000000000000000000e+00 -0.000000000000000000e+00
-5.487179999999999325e+01 0.000000000000000000e+00 -0.000000000000000000e+00
-5.483180000000000121e+01 0.000000000000000000e+00 -0.000000000000000000e+00
-5.479189999999999827e+01 0.000000000000000000e+00 -0.000000000000000000e+00
-5.475189999999999202e+01 0.000000000000000000e+00 -0.000000000000000000e+00
-5.471189999999999998e+01 0.000000000000000000e+00 -0.000000000000000000e+00
-5.467189999999999372e+01 0.000000000000000000e+00 -0.000000000000000000e+00
-5.463190000000000168e+01 0.000000000000000000e+00 -0.000000000000000000e+00
-5.459189999999999543e+01 0.000000000000000000e+00 -0.000000000000000000e+00
-5.455190000000000339e+01 0.000000000000000000e+00 -0.000000000000000000e+00
-5.451200000000000045e+01 0.000000000000000000e+00 -0.000000000000000000e+00
-5.447199999999999420e+01 0.000000000000000000e+00 -0.000000000000000000e+00
-5.443200000000000216e+01 0.000000000000000000e+00 -0.000000000000000000e+00
-5.439199999999999591e+01 0.000000000000000000e+00 -0.000000000000000000e+00
-5.435200000000000387e+01 0.000000000000000000e+00 -0.000000000000000000e+00
-5.431199999999999761e+01 0.000000000000000000e+00 -0.000000000000000000e+00
-5.427209999999999468e+01 0.000000000000000000e+00 -0.000000000000000000e+00
-5.423210000000000264e+01 0.000000000000000000e+00 -0.000000000000000000e+00
-5.419209999999999638e+01 0.000000000000000000e+00 -0.000000000000000000e+00
-5.415209999999999013e+01 0.000000000000000000e+00 -0.000000000000000000e+00
-5.411209999999999809e+01 0.000000000000000000e+00 -0.000000000000000000e+00
-5.407209999999999184e+01 0.000000000000000000e+00 -0.000000000000000000e+00
-5.403220000000000312e+01 0.000000000000000000e+00 -0.000000000000000000e+00
-5.399219999999999686e+01 0.000000000000000000e+00 -1.100000000000000066e-03
-5.395219999999999061e+01 0.000000000000000000e+00 -7.960000000000000409e-02
-5.391219999999999857e+01 0.000000000000000000e+00 -1.693500000000000005e+00
-5.387219999999999231e+01 0.000000000000000000e+00 -1.187199999999999989e+01
-5.383220000000000027e+01 0.000000000000000000e+00 -3.566360000000000241e+01
-5.379219999999999402e+01 0.000000000000000000e+00 -7.239230000000000587e+01
-5.375229999999999109e+01 0.000000000000000000e+00 -9.772280000000000655e+01
-5.371229999999999905e+01 0.000000000000000000e+00 -6.299510000000000076e+01
-5.367229999999999279e+01 0.000000000000000000e+00 -1.617920000000000158e+01
-5.363230000000000075e+01 0.000000000000000000e+00 -1.474699999999999900e+00
-5.359229999999999450e+01 0.000000000000000000e+00 -4.379999999999999866e-02
-5.355230000000000246e+01 0.000000000000000000e+00 -4.000000000000000192e-04
-5.351239999999999952e+01 0.000000000000000000e+00 -0.000000000000000000e+00
-5.347239999999999327e+01 0.000000000000000000e+00 -0.000000000000000000e+00
-5.343240000000000123e+01 0.000000000000000000e+00 -0.000000000000000000e+00
-5.339239999999999498e+01 0.000000000000000000e+00 -0.000000000000000000e+00
-5.335240000000000293e+01 0.000000000000000000e+00 -0.000000000000000000e+00
-5.331239999999999668e+01 0.000000000000000000e+00 -0.000000000000000000e+00
-5.327249999999999375e+01 0.000000000000000000e+00 -0.000000000000000000e+00
-5.323250000000000171e+01 0.000000000000000000e+00 -0.000000000000000000e+00
-5.319249999999999545e+01 0.000000000000000000e+00 -0.000000000000000000e+00
-5.315250000000000341e+01 0.000000000000000000e+00 -0.000000000000000000e+00
-5.311249999999999716e+01 0.000000000000000000e+00 -0.000000000000000000e+00
-5.307249999999999091e+01 0.000000000000000000e+00 -0.000000000000000000e+00
-5.303249999999999886e+01 0.000000000000000000e+00 -0.000000000000000000e+00
-5.299259999999999593e+01 0.000000000000000000e+00 -0.000000000000000000e+00
-5.295260000000000389e+01 0.000000000000000000e+00 -0.000000000000000000e+00
-5.291259999999999764e+01 0.000000000000000000e+00 -0.000000000000000000e+00
-5.287259999999999138e+01 0.000000000000000000e+00 -0.000000000000000000e+00
-5.283259999999999934e+01 0.000000000000000000e+00 -0.000000000000000000e+00
-5.279259999999999309e+01 0.000000000000000000e+00 -0.000000000000000000e+00
-5.275269999999999015e+01 0.000000000000000000e+00 -0.000000000000000000e+00
-5.271269999999999811e+01 0.000000000000000000e+00 -0.000000000000000000e+00
-5.267269999999999186e+01 0.000000000000000000e+00 -0.000000000000000000e+00
-5.263269999999999982e+01 0.000000000000000000e+00 -0.000000000000000000e+00
-5.259269999999999357e+01 0.000000000000000000e+00 -0.000000000000000000e+00
-5.255270000000000152e+01 0.000000000000000000e+00 -0.000000000000000000e+00
-5.251279999999999859e+01 0.000000000000000000e+00 -0.000000000000000000e+00
-5.247279999999999234e+01 0.000000000000000000e+00 -0.000000000000000000e+00
-5.243280000000000030e+01 0.000000000000000000e+00 -0.000000000000000000e+00
-5.239279999999999404e+01 0.000000000000000000e+00 -0.000000000000000000e+00
-5.235280000000000200e+01 0.000000000000000000e+00 -0.000000000000000000e+00
-5.231279999999999575e+01 0.000000000000000000e+00 -0.000000000000000000e+00
-5.227280000000000371e+01 0.000000000000000000e+00 -0.000000000000000000e+00
-5.223290000000000077e+01 0.000000000000000000e+00 -0.000000000000000000e+00
-5.219289999999999452e+01 0.000000000000000000e+00 -0.000000000000000000e+00
-5.215290000000000248e+01 0.000000000000000000e+00 -0.000000000000000000e+00
-5.211289999999999623e+01 0.000000000000000000e+00 -0.000000000000000000e+00
-5.207290000000000418e+01 0.000000000000000000e+00 -0.000000000000000000e+00
-5.203289999999999793e+01 0.000000000000000000e+00 -0.000000000000000000e+00
-5.199299999999999500e+01 0.000000000000000000e+00 -0.000000000000000000e+00
-5.195300000000000296e+01 0.000000000000000000e+00 -0.000000000000000000e+00
-5.191299999999999670e+01 0.000000000000000000e+00 -0.000000000000000000e+00
-5.187299999999999045e+01 0.000000000000000000e+00 -0.000000000000000000e+00
-5.183299999999999841e+01 0.000000000000000000e+00 -0.000000000000000000e+00
-5.179299999999999216e+01 0.000000000000000000e+00 -0.000000000000000000e+00
-5.175300000000000011e+01 0.000000000000000000e+00 -0.000000000000000000e+00
-5.171309999999999718e+01 0.000000000000000000e+00 -0.000000000000000000e+00
-5.167309999999999093e+01 0.000000000000000000e+00 -0.000000000000000000e+00
-5.163309999999999889e+01 0.000000000000000000e+00 -0.000000000000000000e+00
-5.159309999999999263e+01 0.000000000000000000e+00 -0.000000000000000000e+00
-5.155310000000000059e+01 0.000000000000000000e+00 -0.000000000000000000e+00
-5.151309999999999434e+01 0.000000000000000000e+00 -0.000000000000000000e+00
-5.147319999999999141e+01 0.000000000000000000e+00 -0.000000000000000000e+00
-5.143319999999999936e+01 0.000000000000000000e+00 -0.000000000000000000e+00
-5.139319999999999311e+01 0.000000000000000000e+00 -0.000000000000000000e+00
-5.135320000000000107e+01 0.000000000000000000e+00 -0.000000000000000000e+00
-5.131319999999999482e+01 0.000000000000000000e+00 -0.000000000000000000e+00
-5.127320000000000277e+01 0.000000000000000000e+00 -0.000000000000000000e+00
-5.123329999999999984e+01 0.000000000000000000e+00 -0.000000000000000000e+00
-5.119329999999999359e+01 0.000000000000000000e+00 -0.000000000000000000e+00
-5.115330000000000155e+01 0.000000000000000000e+00 -0.000000000000000000e+00
-5.111329999999999529e+01 0.000000000000000000e+00 -0.000000000000000000e+00
-5.107330000000000325e+01 0.000000000000000000e+00 -0.000000000000000000e+00
-5.103329999999999700e+01 0.000000000000000000e+00 -0.000000000000000000e+00
-5.099329999999999075e+01 0.000000000000000000e+00 -0.000000000000000000e+00
-5.095340000000000202e+01 0.000000000000000000e+00 -0.000000000000000000e+00
-5.091339999999999577e+01 0.000000000000000000e+00 -0.000000000000000000e+00
-5.087340000000000373e+01 0.000000000000000000e+00 -0.000000000000000000e+00
-5.083339999999999748e+01 0.000000000000000000e+00 -0.000000000000000000e+00
-5.079339999999999122e+01 0.000000000000000000e+00 -0.000000000000000000e+00
-5.075339999999999918e+01 0.000000000000000000e+00 -0.000000000000000000e+00
-5.071349999999999625e+01 0.000000000000000000e+00 -0.000000000000000000e+00
-5.067350000000000421e+01 0.000000000000000000e+00 -0.000000000000000000e+00
-5.063349999999999795e+01 0.000000000000000000e+00 -0.000000000000000000e+00
-5.059349999999999170e+01 0.000000000000000000e+00 -0.000000000000000000e+00
-5.055349999999999966e+01 0.000000000000000000e+00 -0.000000000000000000e+00
-5.051349999999999341e+01 0.000000000000000000e+00 -0.000000000000000000e+00
-5.047359999999999047e+01 0.000000000000000000e+00 -0.000000000000000000e+00
-5.043359999999999843e+01 0.000000000000000000e+00 -0.000000000000000000e+00
-5.039359999999999218e+01 0.000000000000000000e+00 -0.000000000000000000e+00
-5.035360000000000014e+01 0.000000000000000000e+00 -0.000000000000000000e+00
-5.031359999999999388e+01 0.000000000000000000e+00 -0.000000000000000000e+00
-5.027360000000000184e+01 0.000000000000000000e+00 -0.000000000000000000e+00
-5.023359999999999559e+01 0.000000000000000000e+00 -0.000000000000000000e+00
-5.019369999999999266e+01 0.000000000000000000e+00 -0.000000000000000000e+00
-5.015370000000000061e+01 0.000000000000000000e+00 -0.000000000000000000e+00
-5.011369999999999436e+01 0.000000000000000000e+00 -0.000000000000000000e+00
-5.007370000000000232e+01 0.000000000000000000e+00 -0.000000000000000000e+00
-5.003369999999999607e+01 0.000000000000000000e+00 -0.000000000000000000e+00
-4.999370000000000402e+01 0.000000000000000000e+00 -0.000000000000000000e+00
-4.995380000000000109e+01 0.000000000000000000e+00 -0.000000000000000000e+00
-4.991379999999999484e+01 0.000000000000000000e+00 -0.000000000000000000e+00
-4.987380000000000280e+01 0.000000000000000000e+00 -0.000000000000000000e+00
-4.983379999999999654e+01 0.000000000000000000e+00 -0.000000000000000000e+00
-4.979379999999999029e+01 0.000000000000000000e+00 -0.000000000000000000e+00
-4.975379999999999825e+01 0.000000000000000000e+00 -0.000000000000000000e+00
-4.971389999999999532e+01 0.000000000000000000e+00 -0.000000000000000000e+00
-4.967390000000000327e+01 0.000000000000000000e+00 -0.000000000000000000e+00
-4.963389999999999702e+01 0.000000000000000000e+00 -0.000000000000000000e+00
-4.959389999999999077e+01 0.000000000000000000e+00 -0.000000000000000000e+00
-4.955389999999999873e+01 0.000000000000000000e+00 -0.000000000000000000e+00
-4.951389999999999247e+01 0.000000000000000000e+00 -0.000000000000000000e+00
-4.947390000000000043e+01 0.000000000000000000e+00 -0.000000000000000000e+00
-4.943399999999999750e+01 0.000000000000000000e+00 -0.000000000000000000e+00
-4.939399999999999125e+01 0.000000000000000000e+00 -0.000000000000000000e+00
-4.935399999999999920e+01 0.000000000000000000e+00 -0.000000000000000000e+00
-4.931399999999999295e+01 0.000000000000000000e+00 -0.000000000000000000e+00
-4.927400000000000091e+01 0.000000000000000000e+00 -0.000000000000000000e+00
-4.923399999999999466e+01 0.000000000000000000e+00 -0.000000000000000000e+00
-4.919409999999999172e+01 0.000000000000000000e+00 -0.000000000000000000e+00
-4.915409999999999968e+01 0.000000000000000000e+00 -0.000000000000000000e+00
-4.911409999999999343e+01 0.000000000000000000e+00 -0.000000000000000000e+00
-4.907410000000000139e+01 0.000000000000000000e+00 -0.000000000000000000e+00
-4.903409999999999513e+01 0.000000000000000000e+00 -0.000000000000000000e+00
-4.899410000000000309e+01 0.000000000000000000e+00 -0.000000000000000000e+00
-4.895420000000000016e+01 0.000000000000000000e+00 -0.000000000000000000e+00
-4.891419999999999391e+01 0.000000000000000000e+00 -0.000000000000000000e+00
-4.887420000000000186e+01 0.000000000000000000e+00 -0.000000000000000000e+00
-4.883419999999999561e+01 0.000000000000000000e+00 -0.000000000000000000e+00
-4.879420000000000357e+01 0.000000000000000000e+00 -0.000000000000000000e+00
-4.875419999999999732e+01 0.000000000000000000e+00 -0.000000000000000000e+00
-4.871419999999999106e+01 0.000000000000000000e+00 -0.000000000000000000e+00
-4.867430000000000234e+01 0.000000000000000000e+00 -0.000000000000000000e+00
-4.863429999999999609e+01 0.000000000000000000e+00 -0.000000000000000000e+00
-4.859430000000000405e+01 0.000000000000000000e+00 -0.000000000000000000e+00