 vasp.6.2.0 18Jan21 (build May  7 2021 14:06:14) complex                         
 POSCAR found type information on POSCAR FeLiO S 
 02/POSCAR found :  4 types and      95 ions
 scaLAPACK will be used
 -----------------------------------------------------------------------------
|                                                                             |
|               ----> ADVICE to this user running VASP <----                  |
|                                                                             |
|     You have a (more or less) 'large supercell' and for larger cells it     |
|     might be more efficient to use real-space projection operators.         |
|     Therefore, try LREAL= Auto in the INCAR file.                           |
|     Mind: For very accurate calculation, you might also keep the            |
|     reciprocal projection scheme (i.e. LREAL=.FALSE.).                      |
|                                                                             |
 -----------------------------------------------------------------------------

 LDA part: xc-table for Pade appr. of Perdew
 POSCAR found type information on POSCAR FeLiO S 
 00/POSCAR found :  4 types and      95 ions
 POSCAR found type information on POSCAR FeLiO S 
 06/POSCAR found :  4 types and      95 ions
 Jacobian:    23.154902702064952     
 POSCAR, INCAR and KPOINTS ok, starting setup
 FFT: planning ...
 WAVECAR not read
 entering main loop
       N       E                     dE             d eps       ncg     rms          rms(c)
DAV:   1     0.850158021356E+04    0.85016E+04   -0.31860E+05 16216   0.162E+03
DAV:   2     0.837735789306E+03   -0.76638E+04   -0.70251E+04 15616   0.462E+02
DAV:   3    -0.390285928043E+03   -0.12280E+04   -0.11636E+04 16912   0.192E+02
DAV:   4    -0.535435683995E+03   -0.14515E+03   -0.14216E+03 20600   0.496E+01
DAV:   5    -0.554427724873E+03   -0.18992E+02   -0.18569E+02 27120   0.150E+01BRMIX: very serious problems
 the old and the new charge density differ
 old charge density:   669.00000 new  668.00001
    0.948E+01
DAV:   6    -0.474001744801E+03    0.80426E+02   -0.56649E+02 19464   0.721E+01    0.129E+02
DAV:   7    -0.495934208373E+03   -0.21932E+02   -0.32031E+02 18448   0.467E+01    0.955E+01
DAV:   8    -0.478158289606E+03    0.17776E+02   -0.94004E+01 18944   0.377E+01    0.537E+01
DAV:   9    -0.495767020218E+03   -0.17609E+02   -0.12518E+02 19360   0.295E+01    0.629E+01
DAV:  10    -0.484620492324E+03    0.11147E+02   -0.33288E+01 19072   0.212E+01    0.378E+01
DAV:  11    -0.486940979931E+03   -0.23205E+01   -0.15319E+01 19056   0.179E+01    0.302E+01
DAV:  12    -0.490154821086E+03   -0.32138E+01   -0.12108E+01 18632   0.118E+01    0.222E+01
DAV:  13    -0.492232658537E+03   -0.20778E+01   -0.34314E+00 18816   0.854E+00    0.138E+01
DAV:  14    -0.494065034015E+03   -0.18324E+01   -0.52170E+00 19920   0.463E+00    0.132E+01
DAV:  15    -0.494542940718E+03   -0.47791E+00   -0.11117E+00 19216   0.382E+00    0.984E+00
DAV:  16    -0.494374306949E+03    0.16863E+00   -0.52427E-01 19280   0.335E+00    0.635E+00
DAV:  17    -0.494390150039E+03   -0.15843E-01   -0.55100E-01 19808   0.331E+00    0.939E+00
DAV:  18    -0.494588604814E+03   -0.19845E+00   -0.42585E-01 18768   0.186E+00    0.716E+00
DAV:  19    -0.494652414749E+03   -0.63810E-01   -0.11696E-01 19336   0.122E+00    0.574E+00
DAV:  20    -0.494779004809E+03   -0.12659E+00   -0.11987E-01 20600   0.130E+00    0.395E+00
DAV:  21    -0.494824985977E+03   -0.45981E-01   -0.13796E-01 20168   0.136E+00    0.224E+00
DAV:  22    -0.494845390814E+03   -0.20405E-01   -0.98690E-02 19840   0.110E+00    0.119E+00
DAV:  23    -0.494859295877E+03   -0.13905E-01   -0.48089E-02 20264   0.473E-01    0.938E-01
DAV:  24    -0.494874331534E+03   -0.15036E-01   -0.91958E-03 21712   0.388E-01    0.673E-01
DAV:  25    -0.494888333750E+03   -0.14002E-01   -0.10774E-02 20392   0.497E-01    0.502E-01
DAV:  26    -0.494901948432E+03   -0.13615E-01   -0.12851E-02 20976   0.339E-01    0.484E-01
DAV:  27    -0.494912603619E+03   -0.10655E-01   -0.73790E-03 19872   0.279E-01    0.453E-01
DAV:  28    -0.494923347914E+03   -0.10744E-01   -0.58367E-03 19072   0.298E-01    0.387E-01
DAV:  29    -0.494938160762E+03   -0.14813E-01   -0.13195E-02 19960   0.458E-01    0.338E-01
DAV:  30    -0.494951293482E+03   -0.13133E-01   -0.18519E-02 20040   0.459E-01    0.303E-01
DAV:  31    -0.494960491384E+03   -0.91979E-02   -0.11460E-02 19864   0.308E-01    0.285E-01
DAV:  32    -0.494967404119E+03   -0.69127E-02   -0.53988E-03 20576   0.240E-01    0.266E-01
DAV:  33    -0.494973237683E+03   -0.58336E-02   -0.44837E-03 19488   0.218E-01    0.261E-01
DAV:  34    -0.494976730946E+03   -0.34933E-02   -0.34082E-03 18432   0.116E-01    0.252E-01
DAV:  35    -0.494979791469E+03   -0.30605E-02   -0.78641E-04 19592   0.119E-01    0.252E-01
DAV:  36    -0.494980772844E+03   -0.98137E-03   -0.80819E-04 17464   0.448E-02    0.249E-01
DAV:  37    -0.494980971882E+03   -0.19904E-03   -0.63838E-05 16120   0.123E-02    0.249E-01
DAV:  38    -0.494980617778E+03    0.35410E-03   -0.27575E-05 17624   0.237E-02    0.249E-01
DAV:  39    -0.494978124856E+03    0.24929E-02   -0.62235E-04 18808   0.109E-01    0.254E-01
DAV:  40    -0.494974765867E+03    0.33590E-02   -0.22324E-03 19872   0.175E-01    0.275E-01
DAV:  41    -0.494972695583E+03    0.20703E-02   -0.17842E-03 19600   0.128E-01    0.272E-01
DAV:  42    -0.494971431791E+03    0.12638E-02   -0.14455E-03 19712   0.169E-01    0.245E-01
DAV:  43    -0.494972492196E+03   -0.10604E-02   -0.27345E-03 19936   0.206E-01    0.218E-01
DAV:  44    -0.494975164935E+03   -0.26727E-02   -0.30012E-03 20112   0.195E-01    0.216E-01
DAV:  45    -0.494975773340E+03   -0.60840E-03   -0.12275E-03 16552   0.597E-02    0.208E-01
DAV:  46    -0.494975577096E+03    0.19624E-03   -0.49009E-05 17776   0.279E-02    0.209E-01
DAV:  47    -0.494974932124E+03    0.64497E-03   -0.67014E-05 18368   0.322E-02    0.207E-01
DAV:  48    -0.494971672399E+03    0.32597E-02   -0.12294E-03 19160   0.154E-01    0.215E-01
DAV:  49    -0.494969625917E+03    0.20465E-02   -0.14912E-03 20328   0.107E-01    0.239E-01
DAV:  50    -0.494970809294E+03   -0.11834E-02   -0.52662E-04 16368   0.731E-02    0.233E-01
DAV:  51    -0.494970345661E+03    0.46363E-03   -0.92791E-05 17752   0.476E-02    0.226E-01
DAV:  52    -0.494968922996E+03    0.14227E-02   -0.50404E-04 18368   0.838E-02    0.235E-01
DAV:  53    -0.494965341606E+03    0.35814E-02   -0.27269E-03 18896   0.182E-01    0.255E-01
DAV:  54    -0.494969378860E+03   -0.40373E-02   -0.44080E-03 18248   0.267E-01    0.260E-01
DAV:  55    -0.494972691843E+03   -0.33130E-02   -0.73871E-03 19696   0.271E-01    0.296E-01
DAV:  56    -0.494970777081E+03    0.19148E-02   -0.26647E-03 17600   0.189E-01    0.275E-01
DAV:  57    -0.494970433893E+03    0.34319E-03   -0.38179E-04 18216   0.823E-02    0.321E-01
DAV:  58    -0.494969618355E+03    0.81554E-03   -0.19002E-04 16624   0.478E-02    0.316E-01
DAV:  59    -0.494971502153E+03   -0.18838E-02   -0.47114E-04 17880   0.924E-02    0.313E-01
DAV:  60    -0.494977339948E+03   -0.58378E-02   -0.80245E-02 19296   0.112E+00    0.564E-01
DAV:  61    -0.494996602139E+03   -0.19262E-01   -0.47122E-02 19152   0.535E-01    0.507E-01
DAV:  62    -0.495003189275E+03   -0.65871E-02   -0.11002E-02 17120   0.297E-01    0.279E-01
DAV:  63    -0.495005269738E+03   -0.20805E-02   -0.14249E-03 17976   0.659E-02    0.243E-01
DAV:  64    -0.495012118850E+03   -0.68491E-02   -0.12740E-02 19296   0.463E-01    0.415E-01
DAV:  65    -0.495021669929E+03   -0.95511E-02   -0.98865E-03 20296   0.253E-01    0.372E-01
DAV:  66    -0.495025385234E+03   -0.37153E-02   -0.39565E-03 20008   0.217E-01    0.449E-01
DAV:  67    -0.495029150101E+03   -0.37649E-02   -0.24979E-03 16480   0.109E-01    0.366E-01
DAV:  68    -0.495028714551E+03    0.43555E-03   -0.19254E-04 18072   0.256E-02    0.370E-01
DAV:  69    -0.495028527190E+03    0.18736E-03   -0.95870E-06 14096   0.805E-03    0.368E-01
DAV:  70    -0.495029156930E+03   -0.62974E-03   -0.69165E-05 17544   0.369E-02    0.380E-01
DAV:  71    -0.495034076803E+03   -0.49199E-02   -0.48864E-04 18536   0.986E-02    0.286E-01
DAV:  72    -0.495032195801E+03    0.18810E-02   -0.17947E-04 16832   0.489E-02    0.310E-01
DAV:  73    -0.495029635901E+03    0.25599E-02   -0.40356E-04 18672   0.915E-02    0.306E-01
DAV:  74    -0.495029174812E+03    0.46109E-03   -0.22767E-04 16904   0.247E-02    0.305E-01
DAV:  75    -0.495029277383E+03   -0.10257E-03   -0.21275E-05 13664   0.820E-03    0.305E-01
DAV:  76    -0.495024670784E+03    0.46066E-02   -0.28200E-03 19024   0.254E-01    0.246E-01
DAV:  77    -0.495023858723E+03    0.81206E-03   -0.17056E-03 17928   0.591E-02    0.259E-01
DAV:  78    -0.495024459210E+03   -0.60049E-03   -0.12093E-04 15944   0.266E-02    0.254E-01
DAV:  79    -0.495023086803E+03    0.13724E-02   -0.14168E-04 18320   0.546E-02    0.293E-01
DAV:  80    -0.495023286836E+03   -0.20003E-03   -0.78086E-05 16384   0.155E-02    0.292E-01
DAV:  81    -0.495018230221E+03    0.50566E-02   -0.46671E-04 18600   0.963E-02    0.382E-01
DAV:  82    -0.495020491930E+03   -0.22617E-02   -0.15500E-04 17056   0.451E-02    0.345E-01
DAV:  83    -0.495019886772E+03    0.60516E-03   -0.47102E-05 17136   0.284E-02    0.368E-01
DAV:  84    -0.495019991962E+03   -0.10519E-03   -0.27423E-05 14664   0.980E-03    0.372E-01
DAV:  85    -0.495022883416E+03   -0.28915E-02   -0.21178E-04 17872   0.613E-02    0.308E-01
DAV:  86    -0.495021128899E+03    0.17545E-02   -0.64445E-04 18600   0.106E-01    0.319E-01
DAV:  87    -0.495018113727E+03    0.30152E-02   -0.84888E-04 19224   0.833E-02    0.348E-01
DAV:  88    -0.495018509855E+03   -0.39613E-03   -0.24439E-04 15648   0.338E-02    0.348E-01
DAV:  89    -0.495017261089E+03    0.12488E-02   -0.59907E-05 17576   0.275E-02    0.362E-01
DAV:  90    -0.495017045629E+03    0.21546E-03   -0.31350E-04 18648   0.693E-02    0.330E-01
DAV:  91    -0.495011686720E+03    0.53589E-02   -0.45115E-03 18904   0.233E-01    0.267E-01
DAV:  92    -0.495011110264E+03    0.57646E-03   -0.24144E-03 19008   0.885E-02    0.239E-01
DAV:  93    -0.495015649678E+03   -0.45394E-02   -0.22415E-03 18536   0.179E-01    0.251E-01
DAV:  94    -0.495024335903E+03   -0.86862E-02   -0.69100E-03 19144   0.282E-01    0.269E-01
DAV:  95    -0.495021833874E+03    0.25020E-02   -0.22284E-03 16352   0.135E-01    0.264E-01
DAV:  96    -0.495017112704E+03    0.47212E-02   -0.60600E-04 17896   0.949E-02    0.348E-01
DAV:  97    -0.495016774184E+03    0.33852E-03   -0.84231E-04 18144   0.100E-01    0.279E-01
DAV:  98    -0.495013902948E+03    0.28712E-02   -0.12076E-03 18216   0.105E-01    0.263E-01
DAV:  99    -0.495015828289E+03   -0.19253E-02   -0.51254E-04 15792   0.742E-02    0.264E-01
DAV: 100    -0.495015549279E+03    0.27901E-03   -0.34870E-05 13744   0.132E-02    0.265E-01
DAV: 101    -0.495015487904E+03    0.61375E-04   -0.40315E-04 18872   0.943E-02    0.235E-01
DAV: 102    -0.495017161852E+03   -0.16739E-02   -0.29020E-04 17376   0.587E-02    0.235E-01
DAV: 103    -0.495017976045E+03   -0.81419E-03   -0.13279E-04 18408   0.300E-02    0.238E-01
DAV: 104    -0.495019240639E+03   -0.12646E-02   -0.12619E-04 17928   0.386E-02    0.240E-01
DAV: 105    -0.495019201249E+03    0.39390E-04   -0.61906E-05 14472   0.125E-02    0.242E-01
DAV: 106    -0.495010658060E+03    0.85432E-02   -0.39508E-03 18360   0.246E-01    0.257E-01
DAV: 107    -0.495011942586E+03   -0.12845E-02   -0.11323E-03 15568   0.566E-02    0.249E-01
DAV: 108    -0.495012733148E+03   -0.79056E-03   -0.52559E-05 17544   0.288E-02    0.250E-01
DAV: 109    -0.495020104211E+03   -0.73711E-02   -0.39748E-03 18392   0.250E-01    0.264E-01
DAV: 110    -0.495022367109E+03   -0.22629E-02   -0.22147E-03 18416   0.957E-02    0.294E-01
DAV: 111    -0.495011597439E+03    0.10770E-01   -0.60370E-03 18624   0.316E-01    0.341E-01
DAV: 112    -0.495014545147E+03   -0.29477E-02   -0.12707E-03 16040   0.894E-02    0.331E-01
DAV: 113    -0.495019744566E+03   -0.51994E-02   -0.14028E-03 18072   0.158E-01    0.317E-01
DAV: 114    -0.495021336531E+03   -0.15920E-02   -0.87549E-04 17488   0.515E-02    0.321E-01
DAV: 115    -0.495020629237E+03    0.70729E-03   -0.15783E-04 15432   0.335E-02    0.326E-01
DAV: 116    -0.495029422411E+03   -0.87932E-02   -0.57040E-03 18896   0.323E-01    0.334E-01
DAV: 117    -0.495032157188E+03   -0.27348E-02   -0.25761E-03 17752   0.955E-02    0.316E-01
DAV: 118    -0.495031152341E+03    0.10048E-02   -0.30440E-04 15840   0.464E-02    0.328E-01
DAV: 119    -0.495031463535E+03   -0.31119E-03   -0.20413E-05 16096   0.146E-02    0.331E-01
DAV: 120    -0.495031750623E+03   -0.28709E-03   -0.99097E-06 14016   0.104E-02    0.331E-01
DAV: 121    -0.495029651943E+03    0.20987E-02   -0.37568E-04 17936   0.904E-02    0.367E-01
DAV: 122    -0.495030780253E+03   -0.11283E-02   -0.13581E-04 16496   0.409E-02    0.359E-01
DAV: 123    -0.495032384486E+03   -0.16042E-02   -0.18742E-04 17768   0.540E-02    0.344E-01
DAV: 124    -0.495032486450E+03   -0.10196E-03   -0.13070E-04 17216   0.276E-02    0.347E-01
DAV: 125    -0.495032583834E+03   -0.97384E-04   -0.23563E-05 14080   0.814E-03    0.349E-01
DAV: 126    -0.495033384773E+03   -0.80094E-03   -0.52537E-05 17760   0.288E-02    0.341E-01
DAV: 127    -0.495033585981E+03   -0.20121E-03   -0.26547E-05 14520   0.822E-03    0.341E-01
DAV: 128    -0.495031993479E+03    0.15925E-02   -0.14331E-04 17480   0.455E-02    0.348E-01
DAV: 129    -0.495028082315E+03    0.39112E-02   -0.86288E-04 18328   0.104E-01    0.368E-01
DAV: 130    -0.495020795689E+03    0.72866E-02   -0.31961E-03 19032   0.188E-01    0.406E-01
DAV: 131    -0.495039310726E+03   -0.18515E-01   -0.22688E-02 18960   0.650E-01    0.320E-01
DAV: 132    -0.495040886889E+03   -0.15762E-02   -0.51925E-03 16144   0.117E-01    0.346E-01
DAV: 133    -0.495040540188E+03    0.34670E-03   -0.13757E-04 17696   0.232E-02    0.342E-01
DAV: 134    -0.495039342763E+03    0.11974E-02   -0.73269E-05 17160   0.314E-02    0.344E-01
DAV: 135    -0.495035577567E+03    0.37652E-02   -0.96723E-04 18424   0.123E-01    0.340E-01
DAV: 136    -0.495038309188E+03   -0.27316E-02   -0.17044E-03 18816   0.173E-01    0.304E-01
DAV: 137    -0.495047298378E+03   -0.89892E-02   -0.68243E-03 19448   0.322E-01    0.325E-01
DAV: 138    -0.495055045492E+03   -0.77471E-02   -0.73799E-03 19848   0.242E-01    0.341E-01
DAV: 139    -0.495062506011E+03   -0.74605E-02   -0.43594E-03 19528   0.210E-01    0.312E-01
DAV: 140    -0.495070267620E+03   -0.77616E-02   -0.54638E-03 19400   0.286E-01    0.321E-01
DAV: 141    -0.495069846285E+03    0.42133E-03   -0.12287E-02 19688   0.395E-01    0.553E-01
DAV: 142    -0.495060411552E+03    0.94347E-02   -0.22256E-02 18440   0.669E-01    0.379E-01
DAV: 143    -0.495059106557E+03    0.13050E-02   -0.66292E-03 18744   0.144E-01    0.347E-01
DAV: 144    -0.495057141627E+03    0.19649E-02   -0.80277E-04 17992   0.708E-02    0.342E-01
DAV: 145    -0.495057334897E+03   -0.19327E-03   -0.34079E-04 15440   0.295E-02    0.338E-01
DAV: 146    -0.495061230798E+03   -0.38959E-02   -0.23533E-03 18424   0.205E-01    0.393E-01
DAV: 147    -0.495061446739E+03   -0.21594E-03   -0.88692E-04 15920   0.420E-02    0.401E-01
DAV: 148    -0.495060036886E+03    0.14099E-02   -0.44717E-05 17192   0.275E-02    0.421E-01
DAV: 149    -0.495059671431E+03    0.36545E-03   -0.33649E-05 16768   0.170E-02    0.418E-01
DAV: 150    -0.495058870392E+03    0.80104E-03   -0.32557E-04 18072   0.805E-02    0.384E-01
DAV: 151    -0.495062568701E+03   -0.36983E-02   -0.38395E-04 17264   0.852E-02    0.343E-01
DAV: 152    -0.495062903808E+03   -0.33511E-03   -0.97871E-05 17160   0.213E-02    0.349E-01
DAV: 153    -0.495063399358E+03   -0.49555E-03   -0.22325E-05 15432   0.152E-02    0.348E-01
DAV: 154    -0.495064430576E+03   -0.10312E-02   -0.52053E-05 18048   0.294E-02    0.351E-01
DAV: 155    -0.495067440322E+03   -0.30097E-02   -0.75456E-04 18728   0.112E-01    0.400E-01
DAV: 156    -0.495071038783E+03   -0.35985E-02   -0.20768E-03 19072   0.209E-01    0.359E-01
DAV: 157    -0.495071532991E+03   -0.49421E-03   -0.11321E-03 17200   0.523E-02    0.378E-01
DAV: 158    -0.495070083404E+03    0.14496E-02   -0.12052E-04 17944   0.428E-02    0.410E-01
DAV: 159    -0.495074230070E+03   -0.41467E-02   -0.12072E-03 18584   0.140E-01    0.479E-01
DAV: 160    -0.495077171928E+03   -0.29419E-02   -0.13338E-03 20640   0.996E-02    0.550E-01
DAV: 161    -0.495074732835E+03    0.24391E-02   -0.61550E-04 18528   0.937E-02    0.593E-01
DAV: 162    -0.495075301189E+03   -0.56835E-03   -0.30013E-04 17512   0.664E-02    0.660E-01
DAV: 163    -0.495072883041E+03    0.24181E-02   -0.11065E-03 20072   0.128E-01    0.850E-01
DAV: 164    -0.495071234661E+03    0.16484E-02   -0.90539E-04 19416   0.683E-02    0.929E-01
DAV: 165    -0.495071561169E+03   -0.32651E-03   -0.47388E-04 17736   0.856E-02    0.998E-01
DAV: 166    -0.495062330776E+03    0.92304E-02   -0.50259E-03 19744   0.254E-01    0.111E+00
DAV: 167    -0.495063487799E+03   -0.11570E-02   -0.15951E-03 16432   0.849E-02    0.109E+00
DAV: 168    -0.495060816870E+03    0.26709E-02   -0.78435E-04 19344   0.115E-01    0.122E+00
DAV: 169    -0.495058753549E+03    0.20633E-02   -0.81944E-04 19896   0.714E-02    0.130E+00
DAV: 170    -0.495056247269E+03    0.25063E-02   -0.44783E-04 18672   0.694E-02    0.135E+00
DAV: 171    -0.495052602067E+03    0.36452E-02   -0.84364E-04 18600   0.966E-02    0.139E+00
DAV: 172    -0.495052823127E+03   -0.22106E-03   -0.45869E-04 16840   0.646E-02    0.133E+00
DAV: 173    -0.495051550964E+03    0.12722E-02   -0.16291E-04 18432   0.404E-02    0.136E+00
DAV: 174    -0.495049902250E+03    0.16487E-02   -0.19374E-04 18328   0.417E-02    0.137E+00
DAV: 175    -0.495048921970E+03    0.98028E-03   -0.13762E-04 18072   0.323E-02    0.135E+00
DAV: 176    -0.495047698701E+03    0.12233E-02   -0.21789E-04 17752   0.620E-02    0.129E+00
DAV: 177    -0.495047594578E+03    0.10412E-03   -0.13607E-04 16080   0.192E-02    0.128E+00
DAV: 178    -0.495047634064E+03   -0.39486E-04   -0.21353E-06 10120   0.329E-03    0.128E+00
DAV: 179    -0.495047732886E+03   -0.98822E-04   -0.41449E-06 10736   0.101E-02    0.129E+00
DAV: 180    -0.495047531323E+03    0.20156E-03   -0.10732E-05 13264   0.117E-02    0.129E+00
DAV: 181    -0.495045375874E+03    0.21554E-02   -0.23923E-04 17704   0.602E-02    0.130E+00
DAV: 182    -0.495047395263E+03   -0.20194E-02   -0.32491E-04 17824   0.748E-02    0.125E+00
DAV: 183    -0.495048242461E+03   -0.84720E-03   -0.95401E-05 16952   0.235E-02    0.122E+00
DAV: 184    -0.495049773421E+03   -0.15310E-02   -0.17457E-04 17984   0.493E-02    0.119E+00
DAV: 185    -0.495051557982E+03   -0.17846E-02   -0.45445E-04 18480   0.711E-02    0.114E+00
DAV: 186    -0.495050137962E+03    0.14200E-02   -0.34520E-04 16608   0.590E-02    0.114E+00
DAV: 187    -0.495050490394E+03   -0.35243E-03   -0.83896E-05 17512   0.302E-02    0.113E+00
DAV: 188    -0.495050869022E+03   -0.37863E-03   -0.60874E-05 17648   0.223E-02    0.112E+00
DAV: 189    -0.495051015517E+03   -0.14650E-03   -0.45868E-05 16688   0.220E-02    0.112E+00
DAV: 190    -0.495050842983E+03    0.17253E-03   -0.41879E-05 16592   0.173E-02    0.112E+00
DAV: 191    -0.495033000238E+03    0.17843E-01   -0.65387E-02 18760   0.129E+00    0.615E-01
DAV: 192    -0.495058119955E+03   -0.25120E-01   -0.34647E-02 17392   0.590E-01    0.381E-01
DAV: 193    -0.495067124113E+03   -0.90042E-02   -0.10757E-02 20056   0.248E-01    0.392E-01
DAV: 194    -0.495070803075E+03   -0.36790E-02   -0.32020E-03 17272   0.929E-02    0.392E-01
DAV: 195    -0.495079149466E+03   -0.83464E-02   -0.47371E-03 19168   0.277E-01    0.324E-01
DAV: 196    -0.495090402492E+03   -0.11253E-01   -0.23883E-02 19760   0.586E-01    0.401E-01
DAV: 197    -0.495094955502E+03   -0.45530E-02   -0.12139E-02 17760   0.305E-01    0.393E-01
DAV: 198    -0.495096219964E+03   -0.12645E-02   -0.24238E-03 17344   0.859E-02    0.424E-01
DAV: 199    -0.495095265649E+03    0.95431E-03   -0.20870E-04 18280   0.597E-02    0.412E-01
DAV: 200    -0.495095394159E+03   -0.12851E-03   -0.47308E-05 16232   0.130E-02
 -----------------------------------------------------------------------------
|                                                                             |
|           W    W    AA    RRRRR   N    N  II  N    N   GGGG   !!!           |
|           W    W   A  A   R    R  NN   N  II  NN   N  G    G  !!!           |
|           W    W  A    A  R    R  N N  N  II  N N  N  G       !!!           |
|           W WW W  AAAAAA  RRRRR   N  N N  II  N  N N  G  GGG   !            |
|           WW  WW  A    A  R   R   N   NN  II  N   NN  G    G                |
|           W    W  A    A  R    R  N    N  II  N    N   GGGG   !!!           |
|                                                                             |
|     The electronic self-consistency was not achieved in the given           |
|     number of steps (NELM). The forces and other quantities evaluated       |
|     might not be reliable so examine the results carefully. If you find     |
|     spurious results, we suggest increasing NELM, if you were close to      |
|     convergence or switching to a different ALGO or adjusting the           |
|     density mixing parameters otherwise.                                    |
|                                                                             |
 -----------------------------------------------------------------------------

   1 F= -.49509539E+03 E0= -.49508953E+03  d E =-.495095E+03  mag=    94.0015
quench:  g(F)=  0.000E+00 g(S)=  0.000E+00 dE (1.order)= 0.000E+00
 bond charge predicted
       N       E                     dE             d eps       ncg     rms          rms(c)
DAV:   1    -0.495267490319E+03   -0.17222E+00   -0.16788E+01 17928   0.103E+01    0.229E+00
DAV:   2    -0.495517770006E+03   -0.25028E+00   -0.23024E+00 16856   0.181E+00    0.134E+00
DAV:   3    -0.495532549879E+03   -0.14780E-01   -0.10175E-01 20264   0.524E-01    0.690E-01
DAV:   4    -0.495534005740E+03   -0.14559E-02   -0.60318E-03 21616   0.123E-01    0.445E-01
DAV:   5    -0.495537051334E+03   -0.30456E-02   -0.17391E-03 20952   0.143E-01    0.304E-01
DAV:   6    -0.495540626394E+03   -0.35751E-02   -0.21220E-03 20400   0.137E-01    0.234E-01
DAV:   7    -0.495543182448E+03   -0.25561E-02   -0.12556E-03 19368   0.893E-02    0.218E-01
DAV:   8    -0.495547738067E+03   -0.45556E-02   -0.20541E-03 19280   0.177E-01    0.207E-01
DAV:   9    -0.495552654872E+03   -0.49168E-02   -0.46046E-03 20288   0.214E-01    0.195E-01
DAV:  10    -0.495555716173E+03   -0.30613E-02   -0.29561E-03 18944   0.114E-01    0.183E-01
DAV:  11    -0.495558626615E+03   -0.29104E-02   -0.97062E-04 18736   0.110E-01    0.186E-01
DAV:  12    -0.495560628334E+03   -0.20017E-02   -0.11690E-03 18712   0.727E-02    0.185E-01
DAV:  13    -0.495560324729E+03    0.30360E-03   -0.40977E-04 15640   0.411E-02    0.182E-01
DAV:  14    -0.495560008849E+03    0.31588E-03   -0.22960E-05 17128   0.133E-02    0.181E-01
DAV:  15    -0.495558086634E+03    0.19222E-02   -0.45388E-04 17864   0.763E-02    0.194E-01
DAV:  16    -0.495557054730E+03    0.10319E-02   -0.13573E-03 19016   0.124E-01    0.222E-01
DAV:  17    -0.495558455037E+03   -0.14003E-02   -0.11742E-03 18656   0.964E-02    0.229E-01
DAV:  18    -0.495559076072E+03   -0.62103E-03   -0.39188E-04 17984   0.402E-02    0.207E-01
DAV:  19    -0.495560044725E+03   -0.96865E-03   -0.19697E-02 19016   0.571E-01    0.225E-01
DAV:  20    -0.495564892519E+03   -0.48478E-02   -0.78912E-03 17304   0.157E-01    0.202E-01
DAV:  21    -0.495564759406E+03    0.13311E-03   -0.24379E-03 19360   0.188E-01    0.223E-01
DAV:  22    -0.495565770397E+03   -0.10110E-02   -0.10154E-03 16408   0.589E-02    0.194E-01
DAV:  23    -0.495565927913E+03   -0.15752E-03   -0.19091E-03 19304   0.178E-01    0.137E-01
DAV:  24    -0.495566641221E+03   -0.71331E-03   -0.99639E-04 18104   0.673E-02    0.641E-02
DAV:  25    -0.495566711833E+03   -0.70613E-04   -0.29237E-04 18744   0.548E-02    0.417E-02
DAV:  26    -0.495566765585E+03   -0.53751E-04   -0.14004E-04 16608   0.185E-02    0.334E-02
DAV:  27    -0.495566791547E+03   -0.25963E-04   -0.24121E-05 17280   0.197E-02    0.187E-02
DAV:  28    -0.495566797528E+03   -0.59809E-05   -0.73926E-05 18240   0.311E-02    0.208E-02
DAV:  29    -0.495566801805E+03   -0.42766E-05   -0.45169E-05 16824   0.275E-02
   2 F= -.49556680E+03 E0= -.49556102E+03  d E =-.471408E+00  mag=    94.0000
quench:  g(F)=  0.000E+00 g(S)=  0.000E+00 dE (1.order)= 0.000E+00
 bond charge predicted
       N       E                     dE             d eps       ncg     rms          rms(c)
DAV:   1    -0.495134410605E+03    0.43239E+00   -0.50948E+01 18232   0.190E+01    0.421E+00
DAV:   2    -0.496014722829E+03   -0.88031E+00   -0.82754E+00 17016   0.342E+00    0.282E+00
DAV:   3    -0.496055971131E+03   -0.41248E-01   -0.32612E-01 19848   0.103E+00    0.119E+00
DAV:   4    -0.496056448847E+03   -0.47772E-03   -0.20132E-02 22360   0.202E-01    0.665E-01
DAV:   5    -0.496056101789E+03    0.34706E-03   -0.29477E-03 20184   0.141E-01    0.343E-01
DAV:   6    -0.496056822644E+03   -0.72085E-03   -0.19147E-03 20504   0.105E-01    0.111E-01
DAV:   7    -0.496057149470E+03   -0.32683E-03   -0.55944E-04 18584   0.417E-02    0.940E-02
DAV:   8    -0.496057349472E+03   -0.20000E-03   -0.76966E-05 19728   0.184E-02    0.825E-02
DAV:   9    -0.496057685586E+03   -0.33611E-03   -0.59791E-05 18864   0.263E-02    0.812E-02
DAV:  10    -0.496057862775E+03   -0.17719E-03   -0.54132E-05 16840   0.137E-02    0.815E-02
DAV:  11    -0.496057761866E+03    0.10091E-03   -0.17847E-05 13904   0.110E-02    0.798E-02
DAV:  12    -0.496056772576E+03    0.98929E-03   -0.39602E-04 17976   0.708E-02    0.777E-02
DAV:  13    -0.496055965625E+03    0.80695E-03   -0.82324E-04 18440   0.820E-02    0.665E-02
DAV:  14    -0.496056106849E+03   -0.14122E-03   -0.38966E-04 17048   0.333E-02    0.609E-02
DAV:  15    -0.496056189788E+03   -0.82939E-04   -0.44797E-05 15504   0.133E-02    0.578E-02
DAV:  16    -0.496056306060E+03   -0.11627E-03   -0.29060E-05 17280   0.227E-02    0.504E-02
DAV:  17    -0.496056580276E+03   -0.27422E-03   -0.26418E-04 18864   0.659E-02    0.439E-02
DAV:  18    -0.496056774448E+03   -0.19417E-03   -0.26325E-04 19808   0.400E-02    0.402E-02
DAV:  19    -0.496056930367E+03   -0.15592E-03   -0.11018E-04 18168   0.362E-02    0.363E-02
DAV:  20    -0.496057130607E+03   -0.20024E-03   -0.39669E-04 19024   0.767E-02    0.370E-02
DAV:  21    -0.496057318739E+03   -0.18813E-03   -0.43764E-04 19536   0.478E-02    0.329E-02
DAV:  22    -0.496057430137E+03   -0.11140E-03   -0.14864E-04 17608   0.254E-02    0.262E-02
DAV:  23    -0.496057520870E+03   -0.90734E-04   -0.12098E-04 18504   0.399E-02    0.262E-02
DAV:  24    -0.496057580962E+03   -0.60091E-04   -0.96268E-05 16648   0.179E-02    0.247E-02
DAV:  25    -0.496057604161E+03   -0.23200E-04   -0.18089E-05 13032   0.809E-03    0.242E-02
DAV:  26    -0.496057643301E+03   -0.39139E-04   -0.23008E-05 16240   0.184E-02    0.240E-02
DAV:  27    -0.496057702549E+03   -0.59249E-04   -0.35222E-04 17696   0.688E-02    0.330E-02
DAV:  28    -0.496057801127E+03   -0.98578E-04   -0.22745E-04 17512   0.278E-02    0.285E-02
DAV:  29    -0.496057846076E+03   -0.44949E-04   -0.49647E-05 17264   0.226E-02    0.251E-02
DAV:  30    -0.496057888929E+03   -0.42853E-04   -0.11900E-04 17496   0.352E-02    0.194E-02
DAV:  31    -0.496057923432E+03   -0.34504E-04   -0.27491E-04 18120   0.542E-02    0.201E-02
DAV:  32    -0.496058004345E+03   -0.80912E-04   -0.23005E-04 17760   0.299E-02    0.172E-02
DAV:  33    -0.496058042672E+03   -0.38327E-04   -0.51158E-05 15752   0.156E-02    0.118E-02
DAV:  34    -0.496058062289E+03   -0.19617E-04   -0.22631E-05 14400   0.128E-02    0.118E-02
DAV:  35    -0.496058075244E+03   -0.12956E-04   -0.15212E-05 14080   0.111E-02    0.125E-02
DAV:  36    -0.496058086573E+03   -0.11329E-04   -0.15386E-05 14512   0.112E-02    0.115E-02
DAV:  37    -0.496058099375E+03   -0.12803E-04   -0.43714E-05 17608   0.228E-02    0.946E-03
DAV:  38    -0.496058110997E+03   -0.11622E-04   -0.97117E-05 17744   0.291E-02    0.100E-02
DAV:  39    -0.496058134877E+03   -0.23880E-04   -0.56843E-05 15976   0.126E-02    0.796E-03
DAV:  40    -0.496058144568E+03   -0.96907E-05   -0.24790E-05 16032   0.175E-02    0.786E-03
DAV:  41    -0.496058150411E+03   -0.58438E-05   -0.87927E-05 17816   0.292E-02    0.103E-02
DAV:  42    -0.496058149405E+03    0.10069E-05   -0.13506E-04 17600   0.344E-02    0.102E-02
DAV:  43    -0.496058175690E+03   -0.26286E-04   -0.85660E-05 16872   0.166E-02    0.658E-03
DAV:  44    -0.496058184964E+03   -0.92737E-05   -0.16362E-05 13384   0.845E-03    0.492E-03
DAV:  45    -0.496058188923E+03   -0.39590E-05   -0.59407E-06 10096   0.360E-03
   3 F= -.49605819E+03 E0= -.49605226E+03  d E =-.491387E+00  mag=    94.0000
quench:  g(F)=  0.000E+00 g(S)=  0.000E+00 dE (1.order)= 0.000E+00
 bond charge predicted
       N       E                     dE             d eps       ncg     rms          rms(c)
DAV:   1    -0.494596473948E+03    0.14617E+01   -0.81883E+01 18440   0.261E+01    0.568E+00
DAV:   2    -0.496252424244E+03   -0.16560E+01   -0.15549E+01 16768   0.478E+00    0.423E+00
DAV:   3    -0.496331555747E+03   -0.79132E-01   -0.64727E-01 19848   0.151E+00    0.156E+00
DAV:   4    -0.496333611191E+03   -0.20554E-02   -0.44848E-02 22008   0.279E-01    0.834E-01
DAV:   5    -0.496332398262E+03    0.12129E-02   -0.47863E-03 20736   0.181E-01    0.443E-01
DAV:   6    -0.496332992315E+03   -0.59405E-03   -0.29990E-03 21120   0.139E-01    0.134E-01
DAV:   7    -0.496333286796E+03   -0.29448E-03   -0.97458E-04 18720   0.514E-02    0.996E-02
DAV:   8    -0.496333425115E+03   -0.13832E-03   -0.10874E-04 20784   0.199E-02    0.774E-02
DAV:   9    -0.496333686633E+03   -0.26152E-03   -0.61456E-05 18336   0.281E-02    0.659E-02
DAV:  10    -0.496333925150E+03   -0.23852E-03   -0.77334E-05 18264   0.221E-02    0.641E-02
DAV:  11    -0.496334003897E+03   -0.78747E-04   -0.25208E-05 14200   0.833E-03    0.642E-02
DAV:  12    -0.496333913793E+03    0.90104E-04   -0.90551E-06 12696   0.931E-03    0.627E-02
DAV:  13    -0.496333103938E+03    0.80985E-03   -0.35325E-04 17816   0.664E-02    0.572E-02
DAV:  14    -0.496332644304E+03    0.45963E-03   -0.49112E-04 18544   0.563E-02    0.519E-02
DAV:  15    -0.496332750863E+03   -0.10656E-03   -0.17299E-04 16120   0.219E-02    0.495E-02
DAV:  16    -0.496332793422E+03   -0.42559E-04   -0.19244E-05 15344   0.162E-02    0.456E-02
DAV:  17    -0.496332965501E+03   -0.17208E-03   -0.14958E-04 18176   0.543E-02    0.396E-02
DAV:  18    -0.496333104046E+03   -0.13855E-03   -0.21179E-04 19048   0.431E-02    0.350E-02
DAV:  19    -0.496333216539E+03   -0.11249E-03   -0.12833E-04 18704   0.371E-02    0.295E-02
DAV:  20    -0.496333333880E+03   -0.11734E-03   -0.15933E-04 18472   0.502E-02    0.250E-02
DAV:  21    -0.496333424860E+03   -0.90980E-04   -0.29371E-04 18792   0.583E-02    0.221E-02
DAV:  22    -0.496333511659E+03   -0.86799E-04   -0.20796E-04 18248   0.290E-02    0.174E-02
DAV:  23    -0.496333551803E+03   -0.40144E-04   -0.44317E-05 15592   0.150E-02    0.136E-02
DAV:  24    -0.496333570350E+03   -0.18547E-04   -0.35837E-05 17696   0.235E-02    0.132E-02
DAV:  25    -0.496333586308E+03   -0.15958E-04   -0.46974E-05 16872   0.182E-02    0.111E-02
DAV:  26    -0.496333599654E+03   -0.13346E-04   -0.21917E-05 15256   0.131E-02    0.907E-03
DAV:  27    -0.496333611475E+03   -0.11822E-04   -0.14896E-05 12840   0.932E-03    0.768E-03
DAV:  28    -0.496333618876E+03   -0.74009E-05   -0.84265E-06 12008   0.108E-02    0.809E-03
DAV:  29    -0.496333624993E+03   -0.61172E-05   -0.10850E-05 12048   0.715E-03    0.692E-03
DAV:  30    -0.496333629194E+03   -0.42012E-05   -0.50920E-06 10720   0.942E-03
   4 F= -.49633363E+03 E0= -.49632753E+03  d E =-.275440E+00  mag=    94.0000
quench:  g(F)=  0.000E+00 g(S)=  0.000E+00 dE (1.order)= 0.000E+00
 bond charge predicted
       N       E                     dE             d eps       ncg     rms          rms(c)
DAV:   1    -0.494084056314E+03    0.22496E+01   -0.10038E+02 18560   0.311E+01    0.662E+00
DAV:   2    -0.496296494655E+03   -0.22124E+01   -0.20741E+01 16512   0.582E+00    0.570E+00
DAV:   3    -0.496402037777E+03   -0.10554E+00   -0.97568E-01 19728   0.205E+00    0.192E+00
DAV:   4    -0.496406445360E+03   -0.44076E-02   -0.61769E-02 21864   0.333E-01    0.915E-01
DAV:   5    -0.496405164614E+03    0.12807E-02   -0.64679E-03 20592   0.218E-01    0.551E-01
DAV:   6    -0.496405426958E+03   -0.26234E-03   -0.41599E-03 20912   0.185E-01    0.202E-01
DAV:   7    -0.496405747891E+03   -0.32093E-03   -0.15312E-03 19664   0.580E-02    0.108E-01
DAV:   8    -0.496405807372E+03   -0.59481E-04   -0.14447E-04 21560   0.226E-02    0.798E-02
DAV:   9    -0.496405929187E+03   -0.12181E-03   -0.50569E-05 18528   0.245E-02    0.535E-02
DAV:  10    -0.496406059257E+03   -0.13007E-03   -0.55225E-05 18784   0.205E-02    0.455E-02
DAV:  11    -0.496406145706E+03   -0.86449E-04   -0.24027E-05 16056   0.115E-02    0.446E-02
DAV:  12    -0.496406191346E+03   -0.45640E-04   -0.71545E-06 11480   0.570E-03    0.449E-02
DAV:  13    -0.496406008317E+03    0.18303E-03   -0.38923E-05 16376   0.237E-02    0.433E-02
DAV:  14    -0.496405713863E+03    0.29445E-03   -0.12886E-04 17536   0.372E-02    0.412E-02
DAV:  15    -0.496405633996E+03    0.79868E-04   -0.95042E-05 17232   0.194E-02    0.392E-02
DAV:  16    -0.496405617373E+03    0.16622E-04   -0.37427E-05 16432   0.207E-02    0.355E-02
DAV:  17    -0.496405650477E+03   -0.33104E-04   -0.64007E-05 17824   0.307E-02    0.314E-02
DAV:  18    -0.496405731514E+03   -0.81037E-04   -0.92888E-05 18232   0.360E-02    0.274E-02
DAV:  19    -0.496405799589E+03   -0.68076E-04   -0.13662E-04 18656   0.483E-02    0.217E-02
DAV:  20    -0.496405876063E+03   -0.76474E-04   -0.17474E-04 19384   0.426E-02    0.172E-02
DAV:  21    -0.496405928986E+03   -0.52923E-04   -0.88190E-05 17712   0.214E-02    0.136E-02
DAV:  22    -0.496405952760E+03   -0.23775E-04   -0.19614E-05 15520   0.190E-02    0.114E-02
DAV:  23    -0.496405966591E+03   -0.13831E-04   -0.57324E-05 18040   0.280E-02    0.946E-03
DAV:  24    -0.496405979825E+03   -0.13234E-04   -0.53121E-05 16784   0.173E-02    0.748E-03
DAV:  25    -0.496405988674E+03   -0.88490E-05   -0.18852E-05 12392   0.791E-03    0.636E-03
DAV:  26    -0.496405991478E+03   -0.28040E-05   -0.16025E-06  8440   0.359E-03
   5 F= -.49640599E+03 E0= -.49639960E+03  d E =-.723623E-01  mag=    94.0000
quench:  g(F)=  0.000E+00 g(S)=  0.000E+00 dE (1.order)= 0.000E+00
 bond charge predicted
       N       E                     dE             d eps       ncg     rms          rms(c)
DAV:   1    -0.493766779212E+03    0.26392E+01   -0.10006E+02 18784   0.337E+01    0.695E+00
DAV:   2    -0.496257448602E+03   -0.24907E+01   -0.23274E+01 16200   0.633E+00    0.631E+00
DAV:   3    -0.496373857172E+03   -0.11641E+00   -0.10828E+00 19416   0.230E+00    0.212E+00
DAV:   4    -0.496380509296E+03   -0.66521E-02   -0.74119E-02 21808   0.380E-01    0.997E-01
DAV:   5    -0.496379376878E+03    0.11324E-02   -0.71378E-03 20728   0.231E-01    0.622E-01
DAV:   6    -0.496379412085E+03   -0.35207E-04   -0.42805E-03 20776   0.226E-01    0.232E-01
DAV:   7    -0.496379804059E+03   -0.39197E-03   -0.21568E-03 20168   0.686E-02    0.107E-01
DAV:   8    -0.496379844825E+03   -0.40765E-04   -0.19803E-04 21768   0.275E-02    0.781E-02
DAV:   9    -0.496379915093E+03   -0.70269E-04   -0.41235E-05 18488   0.217E-02    0.514E-02
DAV:  10    -0.496380007125E+03   -0.92031E-04   -0.45273E-05 18816   0.209E-02    0.390E-02
DAV:  11    -0.496380070451E+03   -0.63326E-04   -0.24611E-05 16720   0.120E-02    0.368E-02
DAV:  12    -0.496380132316E+03   -0.61866E-04   -0.83432E-06 11648   0.100E-02    0.371E-02
DAV:  13    -0.496380114594E+03    0.17722E-04   -0.77936E-06 11528   0.711E-03    0.368E-02
DAV:  14    -0.496380083637E+03    0.30957E-04   -0.14725E-06  8832   0.519E-03    0.374E-02
DAV:  15    -0.496380012521E+03    0.71116E-04   -0.10722E-05 12944   0.111E-02    0.384E-02
DAV:  16    -0.496379943482E+03    0.69039E-04   -0.16128E-05 13968   0.113E-02    0.387E-02
DAV:  17    -0.496379896561E+03    0.46922E-04   -0.15564E-05 13760   0.106E-02    0.378E-02
DAV:  18    -0.496379883714E+03    0.12847E-04   -0.80073E-05 17864   0.405E-02    0.298E-02
DAV:  19    -0.496379919135E+03   -0.35421E-04   -0.15317E-04 18592   0.440E-02    0.235E-02
DAV:  20    -0.496379972702E+03   -0.53567E-04   -0.11516E-04 18960   0.332E-02    0.193E-02
DAV:  21    -0.496380013137E+03   -0.40435E-04   -0.64743E-05 18016   0.338E-02    0.162E-02
DAV:  22    -0.496380051678E+03   -0.38541E-04   -0.12692E-04 17840   0.455E-02    0.151E-02
DAV:  23    -0.496380084910E+03   -0.33232E-04   -0.11369E-04 17584   0.204E-02    0.132E-02
DAV:  24    -0.496380095678E+03   -0.10768E-04   -0.19267E-05 12568   0.706E-03    0.112E-02
DAV:  25    -0.496380101026E+03   -0.53477E-05   -0.24045E-06  8616   0.775E-03    0.651E-03
DAV:  26    -0.496380104520E+03   -0.34945E-05   -0.97143E-06 13416   0.119E-02
   6 F= -.49638010E+03 E0= -.49637341E+03  d E =0.258870E-01  mag=    94.0001
quench:  g(F)=  0.000E+00 g(S)=  0.000E+00 dE (1.order)= 0.000E+00
 bond charge predicted
       N       E                     dE             d eps       ncg     rms          rms(c)
DAV:   1    -0.496388327181E+03   -0.82262E-02   -0.81830E-02 19048   0.966E-01    0.175E-01
DAV:   2    -0.496389739056E+03   -0.14119E-02   -0.13138E-02 17224   0.171E-01    0.899E-02
DAV:   3    -0.496389803225E+03   -0.64169E-04   -0.49520E-04 21048   0.417E-02    0.442E-02
DAV:   4    -0.496389803208E+03    0.16997E-07   -0.40117E-05 18504   0.939E-03
   7 F= -.49638980E+03 E0= -.49638314E+03  d E =-.969869E-02  mag=    94.0000
quench:  g(F)=  0.000E+00 g(S)=  0.000E+00 dE (1.order)= 0.000E+00
 bond charge predicted
       N       E                     dE             d eps       ncg     rms          rms(c)
DAV:   1    -0.496402504579E+03   -0.12701E-01   -0.31855E-01 18984   0.191E+00    0.340E-01
DAV:   2    -0.496407947257E+03   -0.54427E-02   -0.50675E-02 17248   0.336E-01    0.180E-01
DAV:   3    -0.496408188847E+03   -0.24159E-03   -0.19135E-03 21376   0.815E-02    0.912E-02
DAV:   4    -0.496408188018E+03    0.82867E-06   -0.15942E-04 21232   0.185E-02    0.564E-02
DAV:   5    -0.496408179990E+03    0.80282E-05   -0.29385E-05 18040   0.168E-02    0.286E-02
DAV:   6    -0.496408184581E+03   -0.45909E-05   -0.15123E-05 15552   0.881E-03
   8 F= -.49640818E+03 E0= -.49640157E+03  d E =-.183814E-01  mag=    94.0000
quench:  g(F)=  0.000E+00 g(S)=  0.000E+00 dE (1.order)= 0.000E+00
 bond charge predicted
       N       E                     dE             d eps       ncg     rms          rms(c)
DAV:   1    -0.496421177446E+03   -0.12997E-01   -0.69164E-01 18912   0.277E+00    0.504E-01
DAV:   2    -0.496432780221E+03   -0.11603E-01   -0.10810E-01 17288   0.493E-01    0.262E-01
DAV:   3    -0.496433309174E+03   -0.52895E-03   -0.40970E-03 21440   0.120E-01    0.129E-01
DAV:   4    -0.496433310076E+03   -0.90263E-06   -0.33781E-04 21496   0.268E-02    0.778E-02
DAV:   5    -0.496433294987E+03    0.15089E-04   -0.54029E-05 19296   0.223E-02    0.421E-02
DAV:   6    -0.496433306032E+03   -0.11044E-04   -0.31002E-05 19160   0.134E-02    0.206E-02
DAV:   7    -0.496433312222E+03   -0.61903E-05   -0.74460E-06 11608   0.550E-03    0.144E-02
DAV:   8    -0.496433319222E+03   -0.69998E-05   -0.18597E-06  8744   0.467E-03    0.123E-02
DAV:   9    -0.496433326792E+03   -0.75700E-05   -0.30018E-06  9728   0.440E-03    0.110E-02
DAV:  10    -0.496433332973E+03   -0.61812E-05   -0.20526E-06  9672   0.312E-03    0.108E-02
DAV:  11    -0.496433337168E+03   -0.41948E-05   -0.79118E-07  8768   0.206E-03
   9 F= -.49643334E+03 E0= -.49642679E+03  d E =-.251526E-01  mag=    94.0000
quench:  g(F)=  0.000E+00 g(S)=  0.000E+00 dE (1.order)= 0.000E+00
 bond charge predicted
       N       E                     dE             d eps       ncg     rms          rms(c)
DAV:   1    -0.496442579722E+03   -0.92467E-02   -0.11688E+00 18864   0.357E+00    0.646E-01
DAV:   2    -0.496461723131E+03   -0.19143E-01   -0.17845E-01 17320   0.634E-01    0.335E-01
DAV:   3    -0.496462579844E+03   -0.85671E-03   -0.66973E-03 21552   0.154E-01    0.166E-01
DAV:   4    -0.496462582254E+03   -0.24104E-05   -0.54584E-04 21416   0.338E-02    0.101E-01
DAV:   5    -0.496462565059E+03    0.17195E-04   -0.91333E-05 20088   0.298E-02    0.553E-02
DAV:   6    -0.496462598481E+03   -0.33422E-04   -0.56350E-05 20472   0.186E-02    0.289E-02
DAV:   7    -0.496462619202E+03   -0.20721E-04   -0.15381E-05 14072   0.790E-03    0.232E-02
DAV:   8    -0.496462643362E+03   -0.24161E-04   -0.35213E-06  9288   0.635E-03    0.218E-02
DAV:   9    -0.496462669321E+03   -0.25959E-04   -0.65329E-06 11456   0.595E-03    0.217E-02
DAV:  10    -0.496462669185E+03    0.13622E-06   -0.28527E-06 10336   0.304E-03
  10 F= -.49646267E+03 E0= -.49645620E+03  d E =-.293320E-01  mag=    94.0000
quench:  g(F)=  0.000E+00 g(S)=  0.000E+00 dE (1.order)= 0.000E+00
 bond charge predicted
       N       E                     dE             d eps       ncg     rms          rms(c)
DAV:   1    -0.496464646210E+03   -0.19769E-02   -0.17165E+00 18784   0.425E+00    0.773E-01
DAV:   2    -0.496491826537E+03   -0.27180E-01   -0.25335E-01 17288   0.756E-01    0.402E-01
DAV:   3    -0.496493071467E+03   -0.12449E-02   -0.96473E-03 21632   0.184E-01    0.199E-01
DAV:   4    -0.496493091243E+03   -0.19775E-04   -0.77289E-04 21520   0.401E-02    0.124E-01
DAV:   5    -0.496493114494E+03   -0.23251E-04   -0.13384E-04 20496   0.374E-02    0.707E-02
DAV:   6    -0.496493226819E+03   -0.11232E-03   -0.98723E-05 20688   0.257E-02    0.432E-02
DAV:   7    -0.496493296700E+03   -0.69882E-04   -0.33060E-05 17048   0.115E-02    0.393E-02
DAV:   8    -0.496493358366E+03   -0.61666E-04   -0.59068E-06 10936   0.744E-03    0.393E-02
DAV:   9    -0.496493369550E+03   -0.11184E-04   -0.52914E-06 11072   0.349E-03    0.393E-02
DAV:  10    -0.496493346280E+03    0.23270E-04   -0.10576E-06  8784   0.319E-03    0.388E-02
DAV:  11    -0.496493126451E+03    0.21983E-03   -0.61243E-05 16496   0.251E-02    0.359E-02
DAV:  12    -0.496492730665E+03    0.39579E-03   -0.30685E-04 17384   0.508E-02    0.379E-02
DAV:  13    -0.496492731068E+03   -0.40370E-06   -0.21099E-04 17456   0.254E-02    0.332E-02
DAV:  14    -0.496492744939E+03   -0.13871E-04   -0.40625E-05 15832   0.160E-02    0.257E-02
DAV:  15    -0.496492763249E+03   -0.18309E-04   -0.23630E-05 14320   0.143E-02    0.142E-02
DAV:  16    -0.496492784450E+03   -0.21202E-04   -0.14504E-05 13392   0.112E-02    0.139E-02
DAV:  17    -0.496492790064E+03   -0.56139E-05   -0.57949E-06 10848   0.606E-03    0.120E-02
DAV:  18    -0.496492801687E+03   -0.11623E-04   -0.11518E-05 13832   0.148E-02    0.104E-02
DAV:  19    -0.496492815750E+03   -0.14062E-04   -0.24823E-05 16088   0.160E-02    0.908E-03
DAV:  20    -0.496492824935E+03   -0.91855E-05   -0.13407E-05 12920   0.883E-03    0.759E-03
DAV:  21    -0.496492830311E+03   -0.53762E-05   -0.48054E-06 10816   0.880E-03    0.616E-03
DAV:  22    -0.496492834351E+03   -0.40393E-05   -0.16442E-05 15360   0.143E-02
  11 F= -.49649283E+03 E0= -.49648645E+03  d E =-.301652E-01  mag=    94.0000
quench:  g(F)=  0.000E+00 g(S)=  0.000E+00 dE (1.order)= 0.000E+00
 bond charge predicted
       N       E                     dE             d eps       ncg     rms          rms(c)
DAV:   1    -0.496484881648E+03    0.79487E-02   -0.23020E+00 18664   0.483E+00    0.877E-01
DAV:   2    -0.496519767311E+03   -0.34886E-01   -0.32592E-01 17304   0.859E-01    0.455E-01
DAV:   3    -0.496521331377E+03   -0.15641E-02   -0.12527E-02 21624   0.210E-01    0.223E-01
DAV:   4    -0.496521321490E+03    0.98868E-05   -0.98881E-04 21832   0.451E-02    0.137E-01
DAV:   5    -0.496521248981E+03    0.72510E-04   -0.16017E-04 20360   0.386E-02    0.730E-02
DAV:   6    -0.496521262925E+03   -0.13944E-04   -0.93351E-05 20712   0.224E-02    0.296E-02
DAV:   7    -0.496521270547E+03   -0.76221E-05   -0.23383E-05 16656   0.870E-03    0.192E-02
DAV:   8    -0.496521276251E+03   -0.57037E-05   -0.31091E-06  9272   0.492E-03    0.141E-02
DAV:   9    -0.496521283443E+03   -0.71926E-05   -0.32075E-06  9608   0.560E-03    0.109E-02
DAV:  10    -0.496521289726E+03   -0.62826E-05   -0.33353E-06 10200   0.394E-03    0.103E-02
DAV:  11    -0.496521294449E+03   -0.47233E-05   -0.11448E-06  9008   0.262E-03
  12 F= -.49652129E+03 E0= -.49651498E+03  d E =-.284601E-01  mag=    94.0000
quench:  g(F)=  0.000E+00 g(S)=  0.000E+00 dE (1.order)= 0.000E+00
 bond charge predicted
       N       E                     dE             d eps       ncg     rms          rms(c)
DAV:   1    -0.496493332419E+03    0.27957E-01   -0.35788E+00 18568   0.590E+00    0.107E+00
DAV:   2    -0.496545207793E+03   -0.51875E-01   -0.48471E-01 17360   0.105E+00    0.556E-01
DAV:   3    -0.496547576414E+03   -0.23686E-02   -0.18927E-02 21712   0.257E-01    0.271E-01
DAV:   4    -0.496547570907E+03    0.55069E-05   -0.14496E-03 21744   0.550E-02    0.169E-01
DAV:   5    -0.496547486567E+03    0.84339E-04   -0.23493E-04 21168   0.480E-02    0.924E-02
DAV:   6    -0.496547537892E+03   -0.51325E-04   -0.15260E-04 21264   0.303E-02    0.396E-02
DAV:   7    -0.496547568958E+03   -0.31066E-04   -0.42894E-05 18128   0.123E-02    0.297E-02
DAV:   8    -0.496547601561E+03   -0.32603E-04   -0.64425E-06 10536   0.791E-03    0.261E-02
DAV:   9    -0.496547646790E+03   -0.45229E-04   -0.11200E-05 13520   0.974E-03    0.253E-02
DAV:  10    -0.496547669981E+03   -0.23192E-04   -0.81107E-06 11408   0.489E-03    0.254E-02
DAV:  11    -0.496547660105E+03    0.98765E-05   -0.17934E-06  9688   0.337E-03    0.250E-02
DAV:  12    -0.496547595296E+03    0.64808E-04   -0.11664E-05 13312   0.117E-02    0.249E-02
DAV:  13    -0.496547415592E+03    0.17970E-03   -0.10723E-04 16728   0.326E-02    0.240E-02
DAV:  14    -0.496547381533E+03    0.34059E-04   -0.10213E-04 17112   0.206E-02    0.197E-02
DAV:  15    -0.496547411566E+03   -0.30034E-04   -0.25793E-05 13768   0.976E-03    0.167E-02
DAV:  16    -0.496547422815E+03   -0.11249E-04   -0.67869E-06 11568   0.112E-02    0.128E-02
DAV:  17    -0.496547439770E+03   -0.16955E-04   -0.18600E-05 14976   0.152E-02    0.108E-02
DAV:  18    -0.496547449710E+03   -0.99394E-05   -0.13044E-05 12680   0.100E-02    0.941E-03
DAV:  19    -0.496547457367E+03   -0.76573E-05   -0.56198E-06 11320   0.931E-03    0.822E-03
DAV:  20    -0.496547466339E+03   -0.89718E-05   -0.15342E-05 14816   0.150E-02    0.756E-03
DAV:  21    -0.496547473504E+03   -0.71648E-05   -0.16899E-05 13928   0.108E-02    0.632E-03
DAV:  22    -0.496547477783E+03   -0.42799E-05   -0.60827E-06 11000   0.644E-03
  13 F= -.49654748E+03 E0= -.49654123E+03  d E =-.261833E-01  mag=    94.0000
quench:  g(F)=  0.000E+00 g(S)=  0.000E+00 dE (1.order)= 0.000E+00
 bond charge predicted
       N       E                     dE             d eps       ncg     rms          rms(c)
DAV:   1    -0.496489348410E+03    0.58125E-01   -0.53628E+00 18352   0.709E+00    0.129E+00
DAV:   2    -0.496563736983E+03   -0.74389E-01   -0.69516E-01 17320   0.125E+00    0.662E-01
DAV:   3    -0.496567215898E+03   -0.34789E-02   -0.27747E-02 21816   0.306E-01    0.319E-01
DAV:   4    -0.496567204080E+03    0.11818E-04   -0.20513E-03 21584   0.651E-02    0.201E-01
DAV:   5    -0.496567050597E+03    0.15348E-03   -0.31096E-04 20928   0.550E-02    0.110E-01
DAV:   6    -0.496567078170E+03   -0.27572E-04   -0.20788E-04 21400   0.347E-02    0.404E-02
DAV:   7    -0.496567094087E+03   -0.15917E-04   -0.58499E-05 19072   0.134E-02    0.261E-02
DAV:   8    -0.496567104970E+03   -0.10883E-04   -0.57439E-06 10488   0.639E-03    0.186E-02
DAV:   9    -0.496567119043E+03   -0.14073E-04   -0.55180E-06 11048   0.816E-03    0.147E-02
DAV:  10    -0.496567130689E+03   -0.11647E-04   -0.62016E-06 11128   0.545E-03    0.137E-02
DAV:  11    -0.496567139499E+03   -0.88097E-05   -0.19472E-06  9208   0.358E-03    0.137E-02
DAV:  12    -0.496567143530E+03   -0.40309E-05   -0.12818E-06  9096   0.193E-03
  14 F= -.49656714E+03 E0= -.49656095E+03  d E =-.196657E-01  mag=    94.0000
quench:  g(F)=  0.000E+00 g(S)=  0.000E+00 dE (1.order)= 0.000E+00
 bond charge predicted
       N       E                     dE             d eps       ncg     rms          rms(c)
DAV:   1    -0.496466597897E+03    0.10054E+00   -0.77690E+00 18272   0.841E+00    0.152E+00
DAV:   2    -0.496571419818E+03   -0.10482E+00   -0.97791E-01 17352   0.148E+00    0.772E-01
DAV:   3    -0.496576120162E+03   -0.47003E-02   -0.35578E-02 21968   0.352E-01    0.365E-01
DAV:   4    -0.496576141030E+03   -0.20868E-04   -0.27528E-03 21664   0.753E-02    0.235E-01
DAV:   5    -0.496575984936E+03    0.15609E-03   -0.40354E-04 21616   0.664E-02    0.132E-01
DAV:   6    -0.496576082698E+03   -0.97762E-04   -0.30276E-04 21568   0.447E-02    0.516E-02
DAV:   7    -0.496576142233E+03   -0.59535E-04   -0.98209E-05 19160   0.182E-02    0.395E-02
DAV:   8    -0.496576202407E+03   -0.60174E-04   -0.11468E-05 13208   0.104E-02    0.350E-02
DAV:   9    -0.496576290716E+03   -0.88309E-04   -0.20414E-05 15080   0.139E-02    0.346E-02
DAV:  10    -0.496576326304E+03   -0.35588E-04   -0.14222E-05 12408   0.617E-03    0.347E-02
DAV:  11    -0.496576294585E+03    0.31719E-04   -0.36999E-06 10616   0.573E-03    0.339E-02
DAV:  12    -0.496576051105E+03    0.24348E-03   -0.85102E-05 16440   0.311E-02    0.311E-02
DAV:  13    -0.496575804566E+03    0.24654E-03   -0.20445E-04 17136   0.396E-02    0.269E-02
DAV:  14    -0.496575826297E+03   -0.21731E-04   -0.12196E-04 16432   0.187E-02    0.233E-02
DAV:  15    -0.496575849060E+03   -0.22763E-04   -0.18011E-05 14040   0.133E-02    0.196E-02
DAV:  16    -0.496575878388E+03   -0.29328E-04   -0.23700E-05 15832   0.193E-02    0.160E-02
DAV:  17    -0.496575902907E+03   -0.24519E-04   -0.26272E-05 16096   0.173E-02    0.139E-02
DAV:  18    -0.496575916945E+03   -0.14038E-04   -0.15096E-05 13504   0.127E-02    0.119E-02
DAV:  19    -0.496575931768E+03   -0.14823E-04   -0.13074E-05 14472   0.151E-02    0.985E-03
DAV:  20    -0.496575944755E+03   -0.12987E-04   -0.24629E-05 15936   0.180E-02    0.816E-03
DAV:  21    -0.496575954283E+03   -0.95278E-05   -0.23883E-05 15280   0.148E-02    0.684E-03
DAV:  22    -0.496575961064E+03   -0.67805E-05   -0.12354E-05 12520   0.865E-03    0.519E-03
DAV:  23    -0.496575964215E+03   -0.31510E-05   -0.42259E-06  9808   0.576E-03
  15 F= -.49657596E+03 E0= -.49656978E+03  d E =-.882068E-02  mag=    94.0000
quench:  g(F)=  0.000E+00 g(S)=  0.000E+00 dE (1.order)= 0.000E+00
 bond charge predicted
       N       E                     dE             d eps       ncg     rms          rms(c)
DAV:   1    -0.496421727616E+03    0.15423E+00   -0.10850E+01 18224   0.993E+00    0.176E+00
DAV:   2    -0.496566209130E+03   -0.14448E+00   -0.13436E+00 17104   0.171E+00    0.883E-01
DAV:   3    -0.496572987651E+03   -0.67785E-02   -0.48843E-02 21976   0.403E-01    0.400E-01
DAV:   4    -0.496573031530E+03   -0.43879E-04   -0.36297E-03 21944   0.867E-02    0.263E-01
DAV:   5    -0.496572791918E+03    0.23961E-03   -0.48238E-04 21752   0.749E-02    0.144E-01
DAV:   6    -0.496572841153E+03   -0.49235E-04   -0.36591E-04 21736   0.480E-02    0.466E-02
DAV:   7    -0.496572868004E+03   -0.26851E-04   -0.11242E-04 18920   0.190E-02    0.314E-02
DAV:   8    -0.496572884923E+03   -0.16919E-04   -0.87245E-06 11760   0.787E-03    0.228E-02
DAV:   9    -0.496572908381E+03   -0.23458E-04   -0.87858E-06 13160   0.106E-02    0.185E-02
DAV:  10    -0.496572926437E+03   -0.18055E-04   -0.91706E-06 11648   0.669E-03    0.173E-02
DAV:  11    -0.496572941476E+03   -0.15039E-04   -0.27688E-06  9768   0.467E-03    0.174E-02
DAV:  12    -0.496572943985E+03   -0.25095E-05   -0.20220E-06  9504   0.239E-03
  16 F= -.49657294E+03 E0= -.49656675E+03  d E =0.302023E-02  mag=    94.0000
quench:  g(F)=  0.000E+00 g(S)=  0.000E+00 dE (1.order)= 0.000E+00
 bond charge predicted
       N       E                     dE             d eps       ncg     rms          rms(c)
DAV:   1    -0.496358184434E+03    0.21476E+00   -0.14610E+01 18256   0.117E+01    0.200E+00
DAV:   2    -0.496553880569E+03   -0.19570E+00   -0.18128E+00 16800   0.197E+00    0.999E-01
DAV:   3    -0.496563600980E+03   -0.97204E-02   -0.66179E-02 22200   0.457E-01    0.430E-01
DAV:   4    -0.496563759068E+03   -0.15809E-03   -0.47937E-03 22096   0.992E-02    0.291E-01
DAV:   5    -0.496563574026E+03    0.18504E-03   -0.54549E-04 21664   0.879E-02    0.160E-01
DAV:   6    -0.496563737308E+03   -0.16328E-03   -0.47754E-04 21808   0.592E-02    0.574E-02
DAV:   7    -0.496563830087E+03   -0.92780E-04   -0.17150E-04 19128   0.246E-02    0.476E-02
DAV:   8    -0.496563921981E+03   -0.91893E-04   -0.18254E-05 16160   0.127E-02    0.435E-02
DAV:   9    -0.496564047196E+03   -0.12522E-03   -0.26082E-05 15440   0.152E-02    0.434E-02
DAV:  10    -0.496564092623E+03   -0.45427E-04   -0.16917E-05 12680   0.670E-03    0.435E-02
DAV:  11    -0.496564031483E+03    0.61140E-04   -0.60698E-06 11504   0.781E-03    0.423E-02
DAV:  12    -0.496563587702E+03    0.44378E-03   -0.17733E-04 16776   0.449E-02    0.372E-02
DAV:  13    -0.496563219394E+03    0.36831E-03   -0.36839E-04 17704   0.507E-02    0.329E-02
DAV:  14    -0.496563307451E+03   -0.88057E-04   -0.17859E-04 16176   0.210E-02    0.282E-02
DAV:  15    -0.496563336355E+03   -0.28904E-04   -0.18405E-05 14280   0.149E-02    0.239E-02
DAV:  16    -0.496563381971E+03   -0.45615E-04   -0.39172E-05 16992   0.268E-02    0.197E-02
DAV:  17    -0.496563414083E+03   -0.32113E-04   -0.42066E-05 17224   0.205E-02    0.176E-02
DAV:  18    -0.496563432233E+03   -0.18149E-04   -0.18157E-05 14272   0.141E-02    0.145E-02
DAV:  19    -0.496563454630E+03   -0.22397E-04   -0.23094E-05 16968   0.233E-02    0.118E-02
DAV:  20    -0.496563473719E+03   -0.19089E-04   -0.39750E-05 17088   0.205E-02    0.971E-03
DAV:  21    -0.496563485807E+03   -0.12088E-04   -0.22030E-05 15080   0.132E-02    0.783E-03
DAV:  22    -0.496563493340E+03   -0.75327E-05   -0.90596E-06 11992   0.115E-02    0.602E-03
DAV:  23    -0.496563497748E+03   -0.44079E-05   -0.11308E-05 12520   0.100E-02
  17 F= -.49656350E+03 E0= -.49655726E+03  d E =0.944624E-02  mag=    94.0000
quench:  g(F)=  0.000E+00 g(S)=  0.000E+00 dE (1.order)= 0.000E+00
 bond charge predicted
       N       E                     dE             d eps       ncg     rms          rms(c)
DAV:   1    -0.496285574611E+03    0.27792E+00   -0.19297E+01 18272   0.136E+01    0.226E+00
DAV:   2    -0.496545495346E+03   -0.25992E+00   -0.24039E+00 16520   0.227E+00    0.113E+00
DAV:   3    -0.496560070742E+03   -0.14575E-01   -0.99862E-02 22072   0.532E-01    0.458E-01
DAV:   4    -0.496560308396E+03   -0.23765E-03   -0.62523E-03 22136   0.114E-01    0.313E-01
DAV:   5    -0.496560040634E+03    0.26776E-03   -0.58180E-04 21632   0.960E-02    0.162E-01
DAV:   6    -0.496560115601E+03   -0.74967E-04   -0.51348E-04 22016   0.607E-02    0.477E-02
DAV:   7    -0.496560151806E+03   -0.36205E-04   -0.18807E-04 18960   0.247E-02    0.351E-02
DAV:   8    -0.496560169647E+03   -0.17841E-04   -0.15767E-05 15688   0.955E-03    0.257E-02
DAV:   9    -0.496560194026E+03   -0.24379E-04   -0.81935E-06 12408   0.113E-02    0.205E-02
DAV:  10    -0.496560217271E+03   -0.23244E-04   -0.11032E-05 12952   0.855E-03    0.190E-02
DAV:  11    -0.496560235141E+03   -0.17871E-04   -0.48896E-06 10752   0.550E-03    0.188E-02
DAV:  12    -0.496560245945E+03   -0.10804E-04   -0.22620E-06  9480   0.324E-03    0.190E-02
DAV:  13    -0.496560236501E+03    0.94445E-05   -0.13907E-06  9024   0.394E-03    0.188E-02
DAV:  14    -0.496560207992E+03    0.28508E-04   -0.43635E-06 10312   0.804E-03    0.185E-02
DAV:  15    -0.496560172185E+03    0.35807E-04   -0.13543E-05 13272   0.101E-02    0.179E-02
DAV:  16    -0.496560150840E+03    0.21345E-04   -0.16563E-05 13672   0.113E-02    0.170E-02
DAV:  17    -0.496560141303E+03    0.95376E-05   -0.22588E-05 15136   0.162E-02    0.152E-02
DAV:  18    -0.496560155492E+03   -0.14189E-04   -0.16295E-05 13408   0.114E-02    0.123E-02
DAV:  19    -0.496560162876E+03   -0.73846E-05   -0.11005E-05 13936   0.155E-02    0.898E-03
DAV:  20    -0.496560173143E+03   -0.10266E-04   -0.19357E-05 15344   0.146E-02    0.790E-03
DAV:  21    -0.496560179472E+03   -0.63291E-05   -0.11033E-05 12184   0.906E-03    0.664E-03
DAV:  22    -0.496560183745E+03   -0.42732E-05   -0.57985E-06 11800   0.126E-02
  18 F= -.49656018E+03 E0= -.49655389E+03  d E =0.331400E-02  mag=    94.0000
quench:  g(F)=  0.000E+00 g(S)=  0.000E+00 dE (1.order)= 0.000E+00
 bond charge predicted
       N       E                     dE             d eps       ncg     rms          rms(c)
DAV:   1    -0.496214688683E+03    0.34549E+00   -0.25423E+01 18256   0.158E+01    0.255E+00
DAV:   2    -0.496556538069E+03   -0.34185E+00   -0.31634E+00 16592   0.262E+00    0.129E+00
DAV:   3    -0.496574712024E+03   -0.18174E-01   -0.11804E-01 21896   0.610E-01    0.515E-01
DAV:   4    -0.496575133209E+03   -0.42118E-03   -0.81958E-03 22496   0.133E-01    0.347E-01
DAV:   5    -0.496574820724E+03    0.31249E-03   -0.70308E-04 21392   0.112E-01    0.171E-01
DAV:   6    -0.496574911941E+03   -0.91218E-04   -0.63250E-04 22264   0.676E-02    0.541E-02
DAV:   7    -0.496574952157E+03   -0.40216E-04   -0.20894E-04 19224   0.266E-02    0.370E-02
DAV:   8    -0.496574968047E+03   -0.15889E-04   -0.18700E-05 16832   0.104E-02    0.267E-02
DAV:   9    -0.496574990521E+03   -0.22475E-04   -0.83721E-06 12336   0.121E-02    0.201E-02
DAV:  10    -0.496575010213E+03   -0.19691E-04   -0.10832E-05 12528   0.863E-03    0.181E-02
DAV:  11    -0.496575026927E+03   -0.16715E-04   -0.47391E-06 10584   0.617E-03    0.177E-02
DAV:  12    -0.496575044974E+03   -0.18047E-04   -0.32442E-06 10072   0.608E-03    0.178E-02
DAV:  13    -0.496575054366E+03   -0.93915E-05   -0.35367E-06 10304   0.326E-03    0.177E-02
DAV:  14    -0.496575058933E+03   -0.45674E-05   -0.45170E-07  8432   0.174E-03
  19 F= -.49657506E+03 E0= -.49656869E+03  d E =-.148752E-01  mag=    94.0000
quench:  g(F)=  0.000E+00 g(S)=  0.000E+00 dE (1.order)= 0.000E+00
 bond charge predicted
       N       E                     dE             d eps       ncg     rms          rms(c)
DAV:   1    -0.496136508022E+03    0.43855E+00   -0.33303E+01 18312   0.181E+01    0.292E+00
DAV:   2    -0.496581786155E+03   -0.44528E+00   -0.41307E+00 16544   0.300E+00    0.149E+00
DAV:   3    -0.496607173829E+03   -0.25388E-01   -0.17269E-01 21712   0.718E-01    0.604E-01
DAV:   4    -0.496607750122E+03   -0.57629E-03   -0.10977E-02 22336   0.156E-01    0.398E-01
DAV:   5    -0.496607395341E+03    0.35478E-03   -0.93522E-04 21344   0.124E-01    0.207E-01
DAV:   6    -0.496607576172E+03   -0.18083E-03   -0.84467E-04 22176   0.831E-02    0.711E-02
DAV:   7    -0.496607673331E+03   -0.97159E-04   -0.29562E-04 19632   0.319E-02    0.518E-02
DAV:   8    -0.496607742212E+03   -0.68881E-04   -0.27844E-05 19432   0.144E-02    0.426E-02
DAV:   9    -0.496607848203E+03   -0.10599E-03   -0.25144E-05 16064   0.188E-02    0.389E-02
DAV:  10    -0.496607934961E+03   -0.86758E-04   -0.27540E-05 15896   0.130E-02    0.386E-02
DAV:  11    -0.496607955199E+03   -0.20238E-04   -0.90282E-06 11896   0.515E-03    0.385E-02
DAV:  12    -0.496607956420E+03   -0.12214E-05   -0.75190E-07  8664   0.172E-03
  20 F= -.49660796E+03 E0= -.49660150E+03  d E =-.328975E-01  mag=    94.0000
quench:  g(F)=  0.000E+00 g(S)=  0.000E+00 dE (1.order)= 0.000E+00
 bond charge predicted
       N       E                     dE             d eps       ncg     rms          rms(c)
DAV:   1    -0.496024885027E+03    0.58307E+00   -0.42684E+01 18272   0.208E+01    0.333E+00
DAV:   2    -0.496606468156E+03   -0.58158E+00   -0.54134E+00 16624   0.344E+00    0.171E+00
DAV:   3    -0.496640524641E+03   -0.34056E-01   -0.23831E-01 21696   0.839E-01    0.702E-01
DAV:   4    -0.496641227202E+03   -0.70256E-03   -0.14091E-02 22272   0.181E-01    0.458E-01
DAV:   5    -0.496640835829E+03    0.39137E-03   -0.11908E-03 21552   0.138E-01    0.249E-01
DAV:   6    -0.496641230676E+03   -0.39485E-03   -0.11878E-03 22184   0.103E-01    0.944E-02
DAV:   7    -0.496641465686E+03   -0.23501E-03   -0.46401E-04 19800   0.394E-02    0.743E-02
DAV:   8    -0.496641671100E+03   -0.20541E-03   -0.43991E-05 20776   0.197E-02    0.667E-02
DAV:   9    -0.496641963202E+03   -0.29210E-03   -0.56084E-05 17024   0.246E-02    0.659E-02
DAV:  10    -0.496642086077E+03   -0.12288E-03   -0.41797E-05 15416   0.111E-02    0.659E-02
DAV:  11    -0.496641989252E+03    0.96825E-04   -0.10544E-05 12328   0.959E-03    0.646E-02
DAV:  12    -0.496641064012E+03    0.92524E-03   -0.30546E-04 17472   0.632E-02    0.600E-02
DAV:  13    -0.496639812553E+03    0.12515E-02   -0.10423E-03 18280   0.984E-02    0.557E-02
DAV:  14    -0.496640113820E+03   -0.30127E-03   -0.55154E-04 17592   0.353E-02    0.488E-02
DAV:  15    -0.496640220728E+03   -0.10691E-03   -0.38427E-05 14824   0.127E-02    0.458E-02
DAV:  16    -0.496640249179E+03   -0.28451E-04   -0.16751E-05 15096   0.179E-02    0.412E-02
DAV:  17    -0.496640360208E+03   -0.11103E-03   -0.17106E-04 18736   0.614E-02    0.341E-02
DAV:  18    -0.496640452100E+03   -0.91892E-04   -0.21040E-04 20088   0.440E-02    0.301E-02
DAV:  19    -0.496640527802E+03   -0.75702E-04   -0.10511E-04 19264   0.417E-02    0.246E-02
DAV:  20    -0.496640598490E+03   -0.70688E-04   -0.15290E-04 18696   0.533E-02    0.192E-02
DAV:  21    -0.496640636685E+03   -0.38195E-04   -0.14167E-04 18784   0.274E-02    0.147E-02
DAV:  22    -0.496640648983E+03   -0.12299E-04   -0.33200E-05 14224   0.108E-02    0.977E-03
DAV:  23    -0.496640652268E+03   -0.32847E-05   -0.28918E-06  9432   0.548E-03
  21 F= -.49664065E+03 E0= -.49663406E+03  d E =-.326958E-01  mag=    94.0000
quench:  g(F)=  0.000E+00 g(S)=  0.000E+00 dE (1.order)= 0.000E+00
 bond charge predicted
       N       E                     dE             d eps       ncg     rms          rms(c)
DAV:   1    -0.495861655631E+03    0.77899E+00   -0.52571E+01 18512   0.236E+01    0.378E+00
DAV:   2    -0.496611212375E+03   -0.74956E+00   -0.69866E+00 16640   0.394E+00    0.196E+00
DAV:   3    -0.496655922121E+03   -0.44710E-01   -0.31534E-01 21720   0.966E-01    0.793E-01
DAV:   4    -0.496656792585E+03   -0.87046E-03   -0.19139E-02 22000   0.214E-01    0.516E-01
DAV:   5    -0.496656016319E+03    0.77627E-03   -0.14308E-03 21272   0.151E-01    0.280E-01
DAV:   6    -0.496656130387E+03   -0.11407E-03   -0.14498E-03 22024   0.114E-01    0.849E-02
DAV:   7    -0.496656234063E+03   -0.10368E-03   -0.62391E-04 20016   0.412E-02    0.549E-02
DAV:   8    -0.496656253070E+03   -0.19006E-04   -0.38411E-05 20736   0.128E-02    0.363E-02
DAV:   9    -0.496656274913E+03   -0.21844E-04   -0.12916E-05 13920   0.149E-02    0.244E-02
DAV:  10    -0.496656296517E+03   -0.21604E-04   -0.16036E-05 15720   0.116E-02    0.192E-02
DAV:  11    -0.496656311817E+03   -0.15301E-04   -0.76842E-06 11248   0.763E-03    0.177E-02
DAV:  12    -0.496656336529E+03   -0.24712E-04   -0.86759E-06 12304   0.144E-02    0.158E-02
DAV:  13    -0.496656375173E+03   -0.38644E-04   -0.74338E-05 18392   0.392E-02    0.123E-02
DAV:  14    -0.496656398775E+03   -0.23602E-04   -0.80827E-05 19016   0.264E-02    0.933E-03
DAV:  15    -0.496656410398E+03   -0.11623E-04   -0.23212E-05 13624   0.863E-03    0.752E-03
DAV:  16    -0.496656414120E+03   -0.37218E-05   -0.18332E-06  8704   0.568E-03
  22 F= -.49665641E+03 E0= -.49664969E+03  d E =-.157619E-01  mag=    94.0000
quench:  g(F)=  0.000E+00 g(S)=  0.000E+00 dE (1.order)= 0.000E+00
 bond charge predicted
       N       E                     dE             d eps       ncg     rms          rms(c)
DAV:   1    -0.495721588256E+03    0.93482E+00   -0.59886E+01 18552   0.257E+01    0.409E+00
DAV:   2    -0.496604860610E+03   -0.88327E+00   -0.82157E+00 16544   0.431E+00    0.213E+00
DAV:   3    -0.496658091959E+03   -0.53231E-01   -0.36835E-01 21816   0.105E+00    0.843E-01
DAV:   4    -0.496659170462E+03   -0.10785E-02   -0.21703E-02 22112   0.232E-01    0.556E-01
DAV:   5    -0.496658319020E+03    0.85144E-03   -0.16056E-03 21448   0.164E-01    0.293E-01
DAV:   6    -0.496658475211E+03   -0.15619E-03   -0.17643E-03 22416   0.121E-01    0.834E-02
DAV:   7    -0.496658574544E+03   -0.99333E-04   -0.62638E-04 19960   0.456E-02    0.558E-02
DAV:   8    -0.496658591581E+03   -0.17037E-04   -0.44705E-05 21096   0.135E-02    0.365E-02
DAV:   9    -0.496658611573E+03   -0.19992E-04   -0.12583E-05 13928   0.152E-02    0.240E-02
DAV:  10    -0.496658631340E+03   -0.19767E-04   -0.16703E-05 15680   0.113E-02    0.183E-02
DAV:  11    -0.496658644827E+03   -0.13487E-04   -0.67342E-06 11016   0.734E-03    0.168E-02
DAV:  12    -0.496658665263E+03   -0.20436E-04   -0.61120E-06 10592   0.125E-02    0.151E-02
DAV:  13    -0.496658697851E+03   -0.32588E-04   -0.47927E-05 18224   0.309E-02    0.118E-02
DAV:  14    -0.496658719093E+03   -0.21241E-04   -0.58008E-05 18664   0.255E-02    0.928E-03
DAV:  15    -0.496658730677E+03   -0.11584E-04   -0.22023E-05 14144   0.952E-03    0.760E-03
DAV:  16    -0.496658735508E+03   -0.48315E-05   -0.24000E-06  8736   0.617E-03
  23 F= -.49665874E+03 E0= -.49665190E+03  d E =-.232139E-02  mag=    94.0000
quench:  g(F)=  0.000E+00 g(S)=  0.000E+00 dE (1.order)= 0.000E+00
 bond charge predicted
       N       E                     dE             d eps       ncg     rms          rms(c)
DAV:   1    -0.495657077887E+03    0.10017E+01   -0.64648E+01 18712   0.269E+01    0.426E+00
DAV:   2    -0.496611351654E+03   -0.95427E+00   -0.88637E+00 16648   0.450E+00    0.226E+00
DAV:   3    -0.496667551839E+03   -0.56200E-01   -0.38363E-01 21704   0.110E+00    0.886E-01
DAV:   4    -0.496668909021E+03   -0.13572E-02   -0.24115E-02 22280   0.245E-01    0.582E-01
DAV:   5    -0.496668018294E+03    0.89073E-03   -0.17781E-03 21952   0.172E-01    0.302E-01
DAV:   6    -0.496668176340E+03   -0.15805E-03   -0.16359E-03 22800   0.127E-01    0.805E-02
DAV:   7    -0.496668276041E+03   -0.99701E-04   -0.68056E-04 19768   0.491E-02    0.555E-02
DAV:   8    -0.496668293417E+03   -0.17376E-04   -0.47286E-05 21648   0.134E-02    0.365E-02
DAV:   9    -0.496668316405E+03   -0.22988E-04   -0.14232E-05 13976   0.162E-02    0.239E-02
DAV:  10    -0.496668336719E+03   -0.20313E-04   -0.16384E-05 15416   0.108E-02    0.182E-02
DAV:  11    -0.496668351805E+03   -0.15087E-04   -0.58511E-06 10552   0.745E-03    0.169E-02
DAV:  12    -0.496668370484E+03   -0.18678E-04   -0.43217E-06  9760   0.927E-03    0.158E-02
DAV:  13    -0.496668405601E+03   -0.35118E-04   -0.22159E-05 16624   0.208E-02    0.145E-02
DAV:  14    -0.496668434603E+03   -0.29002E-04   -0.27321E-05 16104   0.161E-02    0.137E-02
DAV:  15    -0.496668448862E+03   -0.14259E-04   -0.10597E-05 12264   0.647E-03    0.136E-02
DAV:  16    -0.496668452303E+03   -0.34419E-05   -0.14767E-06  8728   0.227E-03
  24 F= -.49666845E+03 E0= -.49666157E+03  d E =-.971680E-02  mag=    94.0000
quench:  g(F)=  0.000E+00 g(S)=  0.000E+00 dE (1.order)= 0.000E+00
 bond charge predicted
       N       E                     dE             d eps       ncg     rms          rms(c)
DAV:   1    -0.495624265082E+03    0.10442E+01   -0.69463E+01 18744   0.279E+01    0.437E+00
DAV:   2    -0.496636063328E+03   -0.10118E+01   -0.94229E+00 16888   0.474E+00    0.235E+00
DAV:   3    -0.496693011604E+03   -0.56948E-01   -0.39916E-01 21904   0.115E+00    0.937E-01
DAV:   4    -0.496694295793E+03   -0.12842E-02   -0.25895E-02 22360   0.256E-01    0.608E-01
DAV:   5    -0.496693238591E+03    0.10572E-02   -0.20706E-03 22096   0.180E-01    0.326E-01
DAV:   6    -0.496693436866E+03   -0.19828E-03   -0.18725E-03 22896   0.138E-01    0.882E-02
DAV:   7    -0.496693566859E+03   -0.12999E-03   -0.80063E-04 19664   0.537E-02    0.645E-02
DAV:   8    -0.496693608383E+03   -0.41524E-04   -0.58292E-05 22120   0.152E-02    0.453E-02
DAV:   9    -0.496693676383E+03   -0.68000E-04   -0.26723E-05 17080   0.217E-02    0.335E-02
DAV:  10    -0.496693735256E+03   -0.58873E-04   -0.28142E-05 17184   0.148E-02    0.290E-02
DAV:  11    -0.496693780559E+03   -0.45302E-04   -0.11230E-05 12808   0.964E-03    0.286E-02
DAV:  12    -0.496693819344E+03   -0.38785E-04   -0.54722E-06 10448   0.734E-03    0.287E-02
DAV:  13    -0.496693828198E+03   -0.88536E-05   -0.44106E-06 10784   0.352E-03    0.286E-02
DAV:  14    -0.496693834605E+03   -0.64070E-05   -0.27597E-07  8512   0.186E-03    0.287E-02
DAV:  15    -0.496693809371E+03    0.25234E-04   -0.93447E-07  8728   0.490E-03    0.284E-02
DAV:  16    -0.496693697974E+03    0.11140E-03   -0.29128E-05 15104   0.191E-02    0.292E-02
DAV:  17    -0.496693575784E+03    0.12219E-03   -0.67837E-05 16360   0.238E-02    0.336E-02
DAV:  18    -0.496693564326E+03    0.11457E-04   -0.54622E-05 15888   0.197E-02    0.295E-02
DAV:  19    -0.496693552508E+03    0.11818E-04   -0.47942E-05 17432   0.309E-02    0.198E-02
DAV:  20    -0.496693557787E+03   -0.52788E-05   -0.67639E-05 17240   0.258E-02    0.142E-02
DAV:  21    -0.496693574247E+03   -0.16460E-04   -0.32225E-05 16168   0.171E-02    0.115E-02
DAV:  22    -0.496693585990E+03   -0.11743E-04   -0.15371E-05 13488   0.182E-02    0.122E-02
DAV:  23    -0.496693598419E+03   -0.12429E-04   -0.27107E-05 15392   0.168E-02    0.132E-02
DAV:  24    -0.496693604416E+03   -0.59973E-05   -0.15662E-05 12688   0.115E-02    0.809E-03
DAV:  25    -0.496693608111E+03   -0.36953E-05   -0.74595E-06 10504   0.523E-03
  25 F= -.49669361E+03 E0= -.49668677E+03  d E =-.251558E-01  mag=    94.0000
quench:  g(F)=  0.000E+00 g(S)=  0.000E+00 dE (1.order)= 0.000E+00
 bond charge predicted
       N       E                     dE             d eps       ncg     rms          rms(c)
DAV:   1    -0.495619835518E+03    0.10738E+01   -0.75394E+01 18744   0.288E+01    0.441E+00
DAV:   2    -0.496663158754E+03   -0.10433E+01   -0.97792E+00 17216   0.497E+00    0.235E+00
DAV:   3    -0.496718084732E+03   -0.54926E-01   -0.40300E-01 22384   0.118E+00    0.981E-01
DAV:   4    -0.496718783951E+03   -0.69922E-03   -0.24344E-02 22056   0.252E-01    0.633E-01
DAV:   5    -0.496717410302E+03    0.13736E-02   -0.24074E-03 21808   0.189E-01    0.350E-01
DAV:   6    -0.496717576707E+03   -0.16640E-03   -0.22950E-03 22944   0.144E-01    0.911E-02
DAV:   7    -0.496717696543E+03   -0.11984E-03   -0.90195E-04 19752   0.563E-02    0.663E-02
DAV:   8    -0.496717722390E+03   -0.25847E-04   -0.65974E-05 22800   0.150E-02    0.439E-02
DAV:   9    -0.496717753881E+03   -0.31491E-04   -0.24723E-05 16880   0.189E-02    0.292E-02
DAV:  10    -0.496717779402E+03   -0.25521E-04   -0.20688E-05 16432   0.130E-02    0.200E-02
DAV:  11    -0.496717797178E+03   -0.17777E-04   -0.87130E-06 11056   0.866E-03    0.175E-02
DAV:  12    -0.496717813372E+03   -0.16194E-04   -0.53903E-06  9496   0.842E-03    0.158E-02
DAV:  13    -0.496717842101E+03   -0.28729E-04   -0.22267E-05 15488   0.210E-02    0.130E-02
DAV:  14    -0.496717861770E+03   -0.19669E-04   -0.35694E-05 16760   0.183E-02    0.967E-03
DAV:  15    -0.496717872944E+03   -0.11174E-04   -0.13680E-05 11984   0.949E-03    0.831E-03
DAV:  16    -0.496717879842E+03   -0.68972E-05   -0.44697E-06  9008   0.712E-03    0.711E-03
DAV:  17    -0.496717887055E+03   -0.72136E-05   -0.12705E-05 12744   0.156E-02    0.617E-03
DAV:  18    -0.496717892534E+03   -0.54788E-05   -0.14170E-05 11720   0.840E-03    0.509E-03
DAV:  19    -0.496717895371E+03   -0.28368E-05   -0.31846E-06  9488   0.386E-03
  26 F= -.49671790E+03 E0= -.49671121E+03  d E =-.242873E-01  mag=    94.0000
quench:  g(F)=  0.000E+00 g(S)=  0.000E+00 dE (1.order)= 0.000E+00
 bond charge predicted
       N       E                     dE             d eps       ncg     rms          rms(c)
DAV:   1    -0.496717908140E+03   -0.15606E-04   -0.12276E-01 19928   0.163E+00    0.254E-01
DAV:   2    -0.496721224220E+03   -0.33161E-02   -0.30799E-02 16512   0.284E-01    0.127E-01
DAV:   3    -0.496721391512E+03   -0.16729E-03   -0.10199E-03 21680   0.647E-02    0.534E-02
DAV:   4    -0.496721394122E+03   -0.26109E-05   -0.73111E-05 20120   0.138E-02    0.369E-02
DAV:   5    -0.496721392141E+03    0.19816E-05   -0.53780E-06 10920   0.125E-02
  27 F= -.49672139E+03 E0= -.49671472E+03  d E =-.349677E-02  mag=    94.0000
quench:  g(F)=  0.000E+00 g(S)=  0.000E+00 dE (1.order)= 0.000E+00
 bond charge predicted
       N       E                     dE             d eps       ncg     rms          rms(c)
DAV:   1    -0.496714625384E+03    0.67687E-02   -0.46512E-01 19840   0.317E+00    0.492E-01
DAV:   2    -0.496727041202E+03   -0.12416E-01   -0.11531E-01 16488   0.550E-01    0.247E-01
DAV:   3    -0.496727675548E+03   -0.63435E-03   -0.38434E-03 21768   0.125E-01    0.103E-01
DAV:   4    -0.496727685581E+03   -0.10034E-04   -0.27549E-04 22296   0.267E-02    0.712E-02
DAV:   5    -0.496727677043E+03    0.85382E-05   -0.23804E-05 18344   0.237E-02    0.375E-02
DAV:   6    -0.496727684613E+03   -0.75694E-05   -0.25985E-05 18352   0.153E-02    0.131E-02
DAV:   7    -0.496727688274E+03   -0.36612E-05   -0.80089E-06 10856   0.624E-03
  28 F= -.49672769E+03 E0= -.49672103E+03  d E =-.629613E-02  mag=    94.0000
quench:  g(F)=  0.000E+00 g(S)=  0.000E+00 dE (1.order)= 0.000E+00
 bond charge predicted
       N       E                     dE             d eps       ncg     rms          rms(c)
DAV:   1    -0.496709064881E+03    0.18620E-01   -0.95590E-01 19752   0.452E+00    0.703E-01
DAV:   2    -0.496734308818E+03   -0.25244E-01   -0.23430E-01 16512   0.783E-01    0.352E-01
DAV:   3    -0.496735623981E+03   -0.13152E-02   -0.79446E-03 21840   0.179E-01    0.145E-01
DAV:   4    -0.496735644375E+03   -0.20394E-04   -0.55356E-04 22648   0.380E-02    0.100E-01
DAV:   5    -0.496735628702E+03    0.15673E-04   -0.49661E-05 20512   0.337E-02    0.538E-02
DAV:   6    -0.496735645280E+03   -0.16578E-04   -0.48569E-05 21608   0.222E-02    0.189E-02
DAV:   7    -0.496735653704E+03   -0.84244E-05   -0.16650E-05 14288   0.858E-03    0.156E-02
DAV:   8    -0.496735661648E+03   -0.79442E-05   -0.21398E-06  8880   0.467E-03    0.139E-02
DAV:   9    -0.496735670795E+03   -0.91467E-05   -0.22791E-06  9552   0.428E-03    0.131E-02
DAV:  10    -0.496735679134E+03   -0.83395E-05   -0.19514E-06  9560   0.327E-03    0.131E-02
DAV:  11    -0.496735678851E+03    0.28357E-06   -0.85737E-07  8704   0.183E-03
  29 F= -.49673568E+03 E0= -.49672905E+03  d E =-.799058E-02  mag=    94.0000
quench:  g(F)=  0.000E+00 g(S)=  0.000E+00 dE (1.order)= 0.000E+00
 bond charge predicted
       N       E                     dE             d eps       ncg     rms          rms(c)
DAV:   1    -0.496703585873E+03    0.32093E-01   -0.15183E+00 19664   0.562E+00    0.880E-01
DAV:   2    -0.496741977172E+03   -0.38391E-01   -0.35482E-01 16536   0.969E-01    0.447E-01
DAV:   3    -0.496744129055E+03   -0.21519E-02   -0.12669E-02 21872   0.224E-01    0.176E-01
DAV:   4    -0.496744173417E+03   -0.44362E-04   -0.90205E-04 22672   0.475E-02    0.123E-01
DAV:   5    -0.496744162903E+03    0.10514E-04   -0.74413E-05 20808   0.412E-02    0.664E-02
DAV:   6    -0.496744201660E+03   -0.38757E-04   -0.74446E-05 22064   0.282E-02    0.257E-02
DAV:   7    -0.496744221573E+03   -0.19914E-04   -0.26926E-05 15608   0.111E-02    0.225E-02
DAV:   8    -0.496744241526E+03   -0.19953E-04   -0.33375E-06  9176   0.609E-03    0.211E-02
DAV:   9    -0.496744261859E+03   -0.20333E-04   -0.44971E-06 10744   0.515E-03    0.207E-02
DAV:  10    -0.496744272152E+03   -0.10293E-04   -0.23988E-06  9688   0.279E-03    0.207E-02
DAV:  11    -0.496744265577E+03    0.65749E-05   -0.74891E-07  8616   0.236E-03    0.204E-02
DAV:  12    -0.496744198537E+03    0.67040E-04   -0.15132E-05 13784   0.143E-02    0.200E-02
DAV:  13    -0.496744016812E+03    0.18172E-03   -0.13358E-04 16816   0.384E-02    0.204E-02
DAV:  14    -0.496744021728E+03   -0.49164E-05   -0.10700E-04 17096   0.189E-02    0.158E-02
DAV:  15    -0.496744045080E+03   -0.23352E-04   -0.19616E-05 13520   0.903E-03    0.129E-02
DAV:  16    -0.496744051058E+03   -0.59779E-05   -0.34266E-06 10168   0.845E-03    0.994E-03
DAV:  17    -0.496744059873E+03   -0.88151E-05   -0.10520E-05 12024   0.125E-02    0.868E-03
DAV:  18    -0.496744064525E+03   -0.46518E-05   -0.84705E-06 11104   0.934E-03
  30 F= -.49674406E+03 E0= -.49673747E+03  d E =-.838567E-02  mag=    94.0000
quench:  g(F)=  0.000E+00 g(S)=  0.000E+00 dE (1.order)= 0.000E+00
 bond charge predicted
       N       E                     dE             d eps       ncg     rms          rms(c)
DAV:   1    -0.496698809233E+03    0.45251E-01   -0.20727E+00 19552   0.646E+00    0.101E+00
DAV:   2    -0.496749398419E+03   -0.50589E-01   -0.46677E-01 16600   0.110E+00    0.514E-01
DAV:   3    -0.496752274550E+03   -0.28761E-02   -0.16819E-02 21912   0.257E-01    0.197E-01
DAV:   4    -0.496752323396E+03   -0.48846E-04   -0.11653E-03 22776   0.538E-02    0.138E-01
DAV:   5    -0.496752288624E+03    0.34772E-04   -0.93250E-05 20904   0.460E-02    0.721E-02
DAV:   6    -0.496752303679E+03   -0.15055E-04   -0.84669E-05 21992   0.292E-02    0.217E-02
DAV:   7    -0.496752308880E+03   -0.52005E-05   -0.28130E-05 16008   0.113E-02    0.163E-02
DAV:   8    -0.496752311104E+03   -0.22242E-05   -0.26834E-06  8840   0.489E-03
  31 F= -.49675231E+03 E0= -.49674575E+03  d E =-.824658E-02  mag=    94.0000
quench:  g(F)=  0.000E+00 g(S)=  0.000E+00 dE (1.order)= 0.000E+00
 bond charge predicted
       N       E                     dE             d eps       ncg     rms          rms(c)
DAV:   1    -0.496696249837E+03    0.56059E-01   -0.25737E+00 19432   0.702E+00    0.111E+00
DAV:   2    -0.496756450300E+03   -0.60200E-01   -0.55472E-01 16664   0.119E+00    0.562E-01
DAV:   3    -0.496759939317E+03   -0.34890E-02   -0.20163E-02 21920   0.279E-01    0.211E-01
DAV:   4    -0.496760004805E+03   -0.65487E-04   -0.13782E-03 22688   0.580E-02    0.148E-01
DAV:   5    -0.496759971974E+03    0.32831E-04   -0.10790E-04 21136   0.497E-02    0.769E-02
DAV:   6    -0.496759993181E+03   -0.21207E-04   -0.97049E-05 21928   0.313E-02    0.236E-02
DAV:   7    -0.496760000101E+03   -0.69194E-05   -0.33469E-05 16384   0.124E-02    0.182E-02
DAV:   8    -0.496760003858E+03   -0.37568E-05   -0.31074E-06  9160   0.556E-03
  32 F= -.49676000E+03 E0= -.49675348E+03  d E =-.769275E-02  mag=    94.0000
quench:  g(F)=  0.000E+00 g(S)=  0.000E+00 dE (1.order)= 0.000E+00
 bond charge predicted
       N       E                     dE             d eps       ncg     rms          rms(c)
DAV:   1    -0.496680394412E+03    0.79606E-01   -0.37023E+00 19360   0.818E+00    0.129E+00
DAV:   2    -0.496762848370E+03   -0.82454E-01   -0.75946E-01 16752   0.137E+00    0.655E-01
DAV:   3    -0.496767652150E+03   -0.48038E-02   -0.27772E-02 22120   0.322E-01    0.243E-01
DAV:   4    -0.496767742935E+03   -0.90785E-04   -0.18453E-03 22688   0.664E-02    0.171E-01
DAV:   5    -0.496767701938E+03    0.40997E-04   -0.14640E-04 21176   0.582E-02    0.876E-02
DAV:   6    -0.496767732642E+03   -0.30705E-04   -0.13168E-04 22016   0.357E-02    0.271E-02
DAV:   7    -0.496767742048E+03   -0.94060E-05   -0.44167E-05 16928   0.143E-02    0.212E-02
DAV:   8    -0.496767747749E+03   -0.57010E-05   -0.42881E-06  9688   0.656E-03    0.154E-02
DAV:   9    -0.496767754225E+03   -0.64759E-05   -0.33257E-06  9448   0.707E-03    0.116E-02
DAV:  10    -0.496767759902E+03   -0.56767E-05   -0.39403E-06  9912   0.547E-03    0.101E-02
DAV:  11    -0.496767765116E+03   -0.52143E-05   -0.18023E-06  8832   0.501E-03    0.927E-03
[...]
 bond charge predicted
       N       E                     dE             d eps       ncg     rms          rms(c)
DAV:   1    -0.496802948898E+03    0.29856E-01   -0.15630E+00 18944   0.463E+00    0.737E-01
DAV:   2    -0.496831231688E+03   -0.28283E-01   -0.26279E-01 16728   0.771E-01    0.363E-01
DAV:   3    -0.496832857682E+03   -0.16260E-02   -0.95078E-03 22464   0.176E-01    0.135E-01
DAV:   4    -0.496832897211E+03   -0.39530E-04   -0.59610E-04 22608   0.368E-02    0.954E-02
DAV:   5    -0.496832889705E+03    0.75065E-05   -0.43472E-05 19456   0.346E-02    0.449E-02
DAV:   6    -0.496832900052E+03   -0.10347E-04   -0.40632E-05 20496   0.166E-02    0.124E-02
DAV:   7    -0.496832901925E+03   -0.18722E-05   -0.10970E-05 12048   0.783E-03
  77 F= -.49683290E+03 E0= -.49682597E+03  d E =-.952343E-04  mag=    94.0000
quench:  g(F)=  0.000E+00 g(S)=  0.000E+00 dE (1.order)= 0.000E+00
 bond charge predicted
       N       E                     dE             d eps       ncg     rms          rms(c)
DAV:   1    -0.496832903384E+03   -0.33316E-05   -0.68307E-04 19368   0.976E-02    0.149E-02
DAV:   2    -0.496832914310E+03   -0.10926E-04   -0.93772E-05 17144   0.172E-02    0.869E-03
DAV:   3    -0.496832915358E+03   -0.10485E-05   -0.32784E-06  9024   0.423E-03    0.575E-03
DAV:   4    -0.496832915978E+03   -0.61946E-06   -0.68437E-07  8384   0.196E-03
  78 F= -.49683292E+03 E0= -.49682598E+03  d E =-.140531E-04  mag=    94.0000
quench:  g(F)=  0.000E+00 g(S)=  0.000E+00 dE (1.order)= 0.000E+00
 bond charge predicted
       N       E                     dE             d eps       ncg     rms          rms(c)
DAV:   1    -0.496832903509E+03    0.11850E-04   -0.23325E-03 19008   0.169E-01    0.230E-02
DAV:   2    -0.496832933703E+03   -0.30194E-04   -0.27796E-04 17384   0.296E-02    0.122E-02
DAV:   3    -0.496832935366E+03   -0.16635E-05   -0.95037E-06 11864   0.696E-03    0.673E-03
DAV:   4    -0.496832935765E+03   -0.39890E-06   -0.16293E-06  8352   0.250E-03
  79 F= -.49683294E+03 E0= -.49682600E+03  d E =-.197877E-04  mag=    94.0000
quench:  g(F)=  0.000E+00 g(S)=  0.000E+00 dE (1.order)= 0.000E+00
 bond charge predicted
       N       E                     dE             d eps       ncg     rms          rms(c)
DAV:   1    -0.496832905500E+03    0.29867E-04   -0.43968E-03 18792   0.221E-01    0.290E-02
DAV:   2    -0.496832954796E+03   -0.49296E-04   -0.45996E-04 17576   0.383E-02    0.154E-02
DAV:   3    -0.496832957242E+03   -0.24459E-05   -0.16503E-05 14944   0.898E-03    0.806E-03
DAV:   4    -0.496832957618E+03   -0.37620E-06   -0.24544E-06  8504   0.304E-03
  80 F= -.49683296E+03 E0= -.49682602E+03  d E =-.218529E-04  mag=    94.0000
quench:  g(F)=  0.000E+00 g(S)=  0.000E+00 dE (1.order)= 0.000E+00
 bond charge predicted
       N       E                     dE             d eps       ncg     rms          rms(c)
DAV:   1    -0.496832912701E+03    0.44541E-04   -0.66108E-03 18632   0.256E-01    0.332E-02
DAV:   2    -0.496832978253E+03   -0.65552E-04   -0.61533E-04 17680   0.437E-02    0.174E-02
DAV:   3    -0.496832981646E+03   -0.33931E-05   -0.24049E-05 17080   0.102E-02    0.860E-03
DAV:   4    -0.496832982008E+03   -0.36156E-06   -0.25404E-06  8680   0.322E-03
  81 F= -.49683298E+03 E0= -.49682605E+03  d E =-.243896E-04  mag=    94.0000
quench:  g(F)=  0.000E+00 g(S)=  0.000E+00 dE (1.order)= 0.000E+00
 bond charge predicted
       N       E                     dE             d eps       ncg     rms          rms(c)
DAV:   1    -0.496832915958E+03    0.65688E-04   -0.90262E-03 18616   0.298E-01    0.384E-02
DAV:   2    -0.496833002955E+03   -0.86997E-04   -0.81696E-04 17688   0.502E-02    0.199E-02
DAV:   3    -0.496833007652E+03   -0.46966E-05   -0.33337E-05 18592   0.117E-02    0.935E-03
DAV:   4    -0.496833008038E+03   -0.38608E-06   -0.25865E-06  8920   0.336E-03
  82 F= -.49683301E+03 E0= -.49682607E+03  d E =-.260299E-04  mag=    94.0000
quench:  g(F)=  0.000E+00 g(S)=  0.000E+00 dE (1.order)= 0.000E+00
 bond charge predicted
       N       E                     dE             d eps       ncg     rms          rms(c)
DAV:   1    -0.496832911343E+03    0.96309E-04   -0.11759E-02 18704   0.349E-01    0.446E-02
DAV:   2    -0.496833027746E+03   -0.11640E-03   -0.10913E-03 17656   0.588E-02    0.232E-02
DAV:   3    -0.496833034099E+03   -0.63532E-05   -0.44659E-05 19904   0.137E-02    0.109E-02
DAV:   4    -0.496833034561E+03   -0.46229E-06   -0.30952E-06  9408   0.359E-03
  83 F= -.49683303E+03 E0= -.49682610E+03  d E =-.265236E-04  mag=    94.0000
quench:  g(F)=  0.000E+00 g(S)=  0.000E+00 dE (1.order)= 0.000E+00
 bond charge predicted
       N       E                     dE             d eps       ncg     rms          rms(c)
DAV:   1    -0.496832868423E+03    0.16568E-03   -0.18009E-02 18712   0.439E-01    0.559E-02
DAV:   2    -0.496833050729E+03   -0.18231E-03   -0.17074E-03 17600   0.740E-02    0.291E-02
DAV:   3    -0.496833060812E+03   -0.10083E-04   -0.70893E-05 22032   0.172E-02    0.132E-02
DAV:   4    -0.496833061362E+03   -0.55011E-06   -0.36985E-06 10192   0.385E-03
  84 F= -.49683306E+03 E0= -.49682612E+03  d E =-.268008E-04  mag=    94.0000
quench:  g(F)=  0.000E+00 g(S)=  0.000E+00 dE (1.order)= 0.000E+00
 bond charge predicted
       N       E                     dE             d eps       ncg     rms          rms(c)
DAV:   1    -0.496832819761E+03    0.24105E-03   -0.26111E-02 18672   0.520E-01    0.664E-02
DAV:   2    -0.496833077187E+03   -0.25743E-03   -0.24113E-03 17544   0.878E-02    0.344E-02
DAV:   3    -0.496833091561E+03   -0.14374E-04   -0.99540E-05 23000   0.203E-02    0.154E-02
DAV:   4    -0.496833092342E+03   -0.78087E-06   -0.47808E-06 10944   0.431E-03
  85 F= -.49683309E+03 E0= -.49682615E+03  d E =-.309795E-04  mag=    94.0000
quench:  g(F)=  0.000E+00 g(S)=  0.000E+00 dE (1.order)= 0.000E+00
 bond charge predicted
       N       E                     dE             d eps       ncg     rms          rms(c)
DAV:   1    -0.496832750076E+03    0.34148E-03   -0.36188E-02 18656   0.606E-01    0.774E-02
DAV:   2    -0.496833101025E+03   -0.35095E-03   -0.32853E-03 17464   0.102E-01    0.400E-02
DAV:   3    -0.496833120819E+03   -0.19794E-04   -0.13558E-04 23344   0.235E-02    0.178E-02
DAV:   4    -0.496833121990E+03   -0.11714E-05   -0.64060E-06 11576   0.505E-03
  86 F= -.49683312E+03 E0= -.49682618E+03  d E =-.296487E-04  mag=    94.0000
quench:  g(F)=  0.000E+00 g(S)=  0.000E+00 dE (1.order)= 0.000E+00
 bond charge predicted
       N       E                     dE             d eps       ncg     rms          rms(c)
DAV:   1    -0.496832664505E+03    0.45631E-03   -0.48125E-02 18632   0.692E-01    0.881E-02
DAV:   2    -0.496833122587E+03   -0.45808E-03   -0.42859E-03 17512   0.117E-01    0.459E-02
DAV:   3    -0.496833148544E+03   -0.25957E-04   -0.17650E-04 23472   0.268E-02    0.205E-02
DAV:   4    -0.496833150358E+03   -0.18134E-05   -0.85273E-06 12552   0.581E-03
  87 F= -.49683315E+03 E0= -.49682620E+03  d E =-.283673E-04  mag=    94.0000
quench:  g(F)=  0.000E+00 g(S)=  0.000E+00 dE (1.order)= 0.000E+00
 bond charge predicted
       N       E                     dE             d eps       ncg     rms          rms(c)
DAV:   1    -0.496832584574E+03    0.56397E-03   -0.59171E-02 18584   0.763E-01    0.970E-02
DAV:   2    -0.496833141202E+03   -0.55663E-03   -0.51996E-03 17512   0.128E-01    0.505E-02
DAV:   3    -0.496833173783E+03   -0.32581E-04   -0.21643E-04 23640   0.295E-02    0.227E-02
DAV:   4    -0.496833176753E+03   -0.29702E-05   -0.10308E-05 13440   0.640E-03
  88 F= -.49683318E+03 E0= -.49682623E+03  d E =-.263954E-04  mag=    94.0000
quench:  g(F)=  0.000E+00 g(S)=  0.000E+00 dE (1.order)= 0.000E+00
 bond charge predicted
       N       E                     dE             d eps       ncg     rms          rms(c)
DAV:   1    -0.496832496635E+03    0.67715E-03   -0.67563E-02 18672   0.828E-01    0.106E-01
DAV:   2    -0.496833159621E+03   -0.66299E-03   -0.61725E-03 17472   0.139E-01    0.548E-02
DAV:   3    -0.496833199348E+03   -0.39727E-04   -0.25101E-04 23640   0.317E-02    0.246E-02
DAV:   4    -0.496833204273E+03   -0.49246E-05   -0.12378E-05 14056   0.706E-03
  89 F= -.49683320E+03 E0= -.49682625E+03  d E =-.275197E-04  mag=    94.0000
quench:  g(F)=  0.000E+00 g(S)=  0.000E+00 dE (1.order)= 0.000E+00
 bond charge predicted
       N       E                     dE             d eps       ncg     rms          rms(c)
DAV:   1    -0.496833215254E+03   -0.15906E-04   -0.49015E-05 17448   0.282E-02    0.142E-02
DAV:   2    -0.496833225574E+03   -0.10321E-04   -0.14711E-05 12248   0.736E-03    0.129E-02
DAV:   3    -0.496833232928E+03   -0.73542E-05   -0.18167E-06  9344   0.329E-03    0.128E-02
DAV:   4    -0.496833233708E+03   -0.77956E-06   -0.78691E-07  8512   0.161E-03
  90 F= -.49683323E+03 E0= -.49682628E+03  d E =-.294352E-04  mag=    94.0000
quench:  g(F)=  0.000E+00 g(S)=  0.000E+00 dE (1.order)= 0.000E+00
 bond charge predicted
       N       E                     dE             d eps       ncg     rms          rms(c)
DAV:   1    -0.496833231340E+03    0.15884E-05   -0.16154E-04 19192   0.483E-02    0.148E-02
DAV:   2    -0.496833246384E+03   -0.15044E-04   -0.30396E-05 15416   0.102E-02    0.141E-02
DAV:   3    -0.496833253692E+03   -0.73081E-05   -0.23023E-06  9152   0.321E-03    0.140E-02
DAV:   4    -0.496833240134E+03    0.13557E-04   -0.18519E-06  9408   0.486E-03    0.136E-02
DAV:   5    -0.496833183257E+03    0.56878E-04   -0.26752E-05 14960   0.160E-02    0.122E-02
DAV:   6    -0.496833164360E+03    0.18897E-04   -0.25525E-05 14312   0.107E-02    0.998E-03
DAV:   7    -0.496833141080E+03    0.23280E-04   -0.24596E-05 14824   0.140E-02    0.808E-03
DAV:   8    -0.496833143314E+03   -0.22343E-05   -0.24659E-05 14256   0.968E-03
  91 F= -.49683314E+03 E0= -.49682619E+03  d E =0.903940E-04  mag=    94.0000
quench:  g(F)=  0.000E+00 g(S)=  0.000E+00 dE (1.order)= 0.000E+00
 bond charge predicted
       N       E                     dE             d eps       ncg     rms          rms(c)
DAV:   1    -0.496833149136E+03   -0.80561E-05   -0.31884E-04 19512   0.670E-02    0.107E-02
DAV:   2    -0.496833155929E+03   -0.67935E-05   -0.52319E-05 16440   0.126E-02    0.574E-03
DAV:   3    -0.496833156418E+03   -0.48910E-06   -0.16599E-06  8488   0.295E-03    0.343E-03
DAV:   4    -0.496833156632E+03   -0.21358E-06   -0.34253E-07  8160   0.131E-03
  92 F= -.49683316E+03 E0= -.49682620E+03  d E =-.133179E-04  mag=    94.0000
quench:  g(F)=  0.000E+00 g(S)=  0.000E+00 dE (1.order)= 0.000E+00
 bond charge predicted
       N       E                     dE             d eps       ncg     rms          rms(c)
DAV:   1    -0.496833152445E+03    0.39736E-05   -0.46822E-04 19104   0.757E-02    0.110E-02
DAV:   2    -0.496833159291E+03   -0.68466E-05   -0.62454E-05 17368   0.135E-02    0.614E-03
DAV:   3    -0.496833159700E+03   -0.40878E-06   -0.19701E-06  8568   0.318E-03    0.344E-03
DAV:   4    -0.496833159841E+03   -0.14114E-06   -0.42552E-07  8136   0.135E-03
  93 F= -.49683316E+03 E0= -.49682620E+03  d E =-.320934E-05  mag=    94.0000
quench:  g(F)=  0.000E+00 g(S)=  0.000E+00 dE (1.order)= 0.000E+00
 bond charge predicted
       N       E                     dE             d eps       ncg     rms          rms(c)
DAV:   1    -0.496833154787E+03    0.49131E-05   -0.62103E-04 19008   0.822E-02    0.117E-02
DAV:   2    -0.496833162539E+03   -0.77522E-05   -0.71340E-05 17512   0.144E-02    0.646E-03
DAV:   3    -0.496833162970E+03   -0.43123E-06   -0.23240E-06  8608   0.345E-03    0.347E-03
DAV:   4    -0.496833163103E+03   -0.13238E-06   -0.52449E-07  8128   0.146E-03
  94 F= -.49683316E+03 E0= -.49682621E+03  d E =-.326151E-05  mag=    94.0000
quench:  g(F)=  0.000E+00 g(S)=  0.000E+00 dE (1.order)= 0.000E+00
 bond charge predicted
       N       E                     dE             d eps       ncg     rms          rms(c)
DAV:   1    -0.496833157491E+03    0.54791E-05   -0.77320E-04 18944   0.893E-02    0.125E-02
DAV:   2    -0.496833166573E+03   -0.90816E-05   -0.83942E-05 17464   0.155E-02    0.686E-03
DAV:   3    -0.496833167071E+03   -0.49801E-06   -0.27881E-06  9104   0.371E-03    0.355E-03
DAV:   4    -0.496833167216E+03   -0.14537E-06   -0.61460E-07  8160   0.156E-03
  95 F= -.49683317E+03 E0= -.49682621E+03  d E =-.411346E-05  mag=    94.0000
quench:  g(F)=  0.000E+00 g(S)=  0.000E+00 dE (1.order)= 0.000E+00
 bond charge predicted
       N       E                     dE             d eps       ncg     rms          rms(c)
DAV:   1    -0.496833156232E+03    0.10839E-04   -0.11472E-03 18928   0.108E-01    0.150E-02
DAV:   2    -0.496833169419E+03   -0.13188E-04   -0.12229E-04 17472   0.185E-02    0.811E-03
DAV:   3    -0.496833170131E+03   -0.71136E-06   -0.40606E-06 10120   0.439E-03    0.402E-03
DAV:   4    -0.496833170312E+03   -0.18138E-06   -0.81045E-07  8176   0.176E-03
  96 F= -.49683317E+03 E0= -.49682621E+03  d E =-.309607E-05  mag=    94.0000
quench:  g(F)=  0.000E+00 g(S)=  0.000E+00 dE (1.order)= 0.000E+00
 bond charge predicted
       N       E                     dE             d eps       ncg     rms          rms(c)
DAV:   1    -0.496833153085E+03    0.17045E-04   -0.16623E-03 18888   0.130E-01    0.178E-02
DAV:   2    -0.496833171655E+03   -0.18570E-04   -0.17207E-04 17552   0.220E-02    0.955E-03
DAV:   3    -0.496833172664E+03   -0.10086E-05   -0.57143E-06 11096   0.517E-03    0.465E-03
DAV:   4    -0.496833172912E+03   -0.24878E-06   -0.10697E-06  8192   0.203E-03
  97 F= -.49683317E+03 E0= -.49682621E+03  d E =-.260024E-05  mag=    94.0000
quench:  g(F)=  0.000E+00 g(S)=  0.000E+00 dE (1.order)= 0.000E+00
 bond charge predicted
       N       E                     dE             d eps       ncg     rms          rms(c)
DAV:   1    -0.496833149229E+03    0.23435E-04   -0.23388E-03 18888   0.153E-01    0.209E-02
DAV:   2    -0.496833174895E+03   -0.25666E-04   -0.23763E-04 17520   0.257E-02    0.111E-02
DAV:   3    -0.496833176337E+03   -0.14416E-05   -0.80926E-06 12488   0.602E-03    0.537E-03
DAV:   4    -0.496833176699E+03   -0.36221E-06   -0.13656E-06  8288   0.228E-03
  98 F= -.49683318E+03 E0= -.49682622E+03  d E =-.378661E-05  mag=    94.0000
quench:  g(F)=  0.000E+00 g(S)=  0.000E+00 dE (1.order)= 0.000E+00
 bond charge predicted
       N       E                     dE             d eps       ncg     rms          rms(c)
DAV:   1    -0.496833143454E+03    0.32883E-04   -0.32098E-03 18896   0.181E-01    0.245E-02
DAV:   2    -0.496833178971E+03   -0.35517E-04   -0.32810E-04 17496   0.302E-02    0.130E-02
DAV:   3    -0.496833181043E+03   -0.20717E-05   -0.11293E-05 13720   0.699E-03    0.614E-03
DAV:   4    -0.496833181598E+03   -0.55545E-06   -0.17110E-06  8336   0.260E-03
  99 F= -.49683318E+03 E0= -.49682622E+03  d E =-.489927E-05  mag=    94.0000
quench:  g(F)=  0.000E+00 g(S)=  0.000E+00 dE (1.order)= 0.000E+00
 bond charge predicted
       N       E                     dE             d eps       ncg     rms          rms(c)
DAV:   1    -0.496833138436E+03    0.42607E-04   -0.41581E-03 18824   0.202E-01    0.272E-02
DAV:   2    -0.496833182566E+03   -0.44130E-04   -0.40637E-04 17560   0.337E-02    0.144E-02
DAV:   3    -0.496833185298E+03   -0.27315E-05   -0.14264E-05 14880   0.775E-03    0.695E-03
DAV:   4    -0.496833186131E+03   -0.83289E-06   -0.20055E-06  8472   0.284E-03
 100 F= -.49683319E+03 E0= -.49682623E+03  d E =-.453250E-05  mag=    94.0000
quench:  g(F)=  0.000E+00 g(S)=  0.000E+00 dE (1.order)= 0.000E+00
 bond charge predicted
       N       E                     dE             d eps       ncg     rms          rms(c)
DAV:   1    -0.496833131023E+03    0.54275E-04   -0.51992E-03 18808   0.227E-01    0.307E-02
DAV:   2    -0.496833187115E+03   -0.56091E-04   -0.51388E-04 17384   0.380E-02    0.164E-02
DAV:   3    -0.496833190844E+03   -0.37290E-05   -0.18662E-05 16184   0.880E-03    0.829E-03
DAV:   4    -0.496833192004E+03   -0.11601E-05   -0.22292E-06  8520   0.300E-03
 101 F= -.49683319E+03 E0= -.49682623E+03  d E =-.587286E-05  mag=    94.0000
quench:  g(F)=  0.000E+00 g(S)=  0.000E+00 dE (1.order)= 0.000E+00
 bond charge predicted
       N       E                     dE             d eps       ncg     rms          rms(c)
DAV:   1    -0.496833126032E+03    0.64812E-04   -0.63421E-03 18800   0.251E-01    0.335E-02
DAV:   2    -0.496833193684E+03   -0.67653E-04   -0.61473E-04 17432   0.418E-02    0.181E-02
DAV:   3    -0.496833198551E+03   -0.48666E-05   -0.22793E-05 16928   0.962E-03    0.953E-03
DAV:   4    -0.496833200320E+03   -0.17692E-05   -0.24912E-06  8792   0.320E-03
 102 F= -.49683320E+03 E0= -.49682624E+03  d E =-.831635E-05  mag=    94.0000
quench:  g(F)=  0.000E+00 g(S)=  0.000E+00 dE (1.order)= 0.000E+00
 bond charge predicted
       N       E                     dE             d eps       ncg     rms          rms(c)
DAV:   1    -0.496833120700E+03    0.77851E-04   -0.76532E-03 18824   0.278E-01    0.374E-02
DAV:   2    -0.496833203857E+03   -0.83157E-04   -0.74669E-04 17344   0.459E-02    0.203E-02
DAV:   3    -0.496833210536E+03   -0.66787E-05   -0.28544E-05 18048   0.106E-02    0.109E-02
DAV:   4    -0.496833213448E+03   -0.29124E-05   -0.25935E-06  8960   0.342E-03
 103 F= -.49683321E+03 E0= -.49682625E+03  d E =-.131283E-04  mag=    94.0000
quench:  g(F)=  0.000E+00 g(S)=  0.000E+00 dE (1.order)= 0.000E+00
 bond charge predicted
       N       E                     dE             d eps       ncg     rms          rms(c)
DAV:   1    -0.496833116846E+03    0.93690E-04   -0.96155E-03 18792   0.308E-01    0.418E-02
DAV:   2    -0.496833219359E+03   -0.10251E-03   -0.90874E-04 17320   0.503E-02    0.229E-02
DAV:   3    -0.496833228544E+03   -0.91847E-05   -0.36121E-05 19168   0.118E-02    0.130E-02
DAV:   4    -0.496833232870E+03   -0.43257E-05   -0.29288E-06  9296   0.364E-03
 104 F= -.49683323E+03 E0= -.49682626E+03  d E =-.194215E-04  mag=    94.0000
quench:  g(F)=  0.000E+00 g(S)=  0.000E+00 dE (1.order)= 0.000E+00
 bond charge predicted
       N       E                     dE             d eps       ncg     rms          rms(c)
DAV:   1    -0.496833121055E+03    0.10749E-03   -0.12089E-02 18704   0.333E-01    0.449E-02
DAV:   2    -0.496833242191E+03   -0.12114E-03   -0.10593E-03 17344   0.548E-02    0.251E-02
DAV:   3    -0.496833254488E+03   -0.12296E-04   -0.43732E-05 19944   0.128E-02    0.153E-02
DAV:   4    -0.496833260996E+03   -0.65083E-05   -0.33147E-06  9704   0.398E-03    0.141E-02
DAV:   5    -0.496833272167E+03   -0.11171E-04   -0.15643E-06  8480   0.425E-03    0.138E-02
DAV:   6    -0.496833281844E+03   -0.96773E-05   -0.27104E-06  9680   0.303E-03    0.141E-02
DAV:   7    -0.496833268482E+03    0.13362E-04   -0.22389E-06  9872   0.471E-03    0.135E-02
DAV:   8    -0.496833165485E+03    0.10300E-03   -0.75850E-05 16152   0.267E-02    0.121E-02
DAV:   9    -0.496833155078E+03    0.10407E-04   -0.68930E-05 16344   0.172E-02    0.852E-03
DAV:  10    -0.496833175168E+03   -0.20090E-04   -0.21491E-05 13296   0.792E-03    0.518E-03
DAV:  11    -0.496833180153E+03   -0.49850E-05   -0.25898E-06 10320   0.413E-03
 105 F= -.49683318E+03 E0= -.49682621E+03  d E =0.527165E-04  mag=    94.0000
quench:  g(F)=  0.000E+00 g(S)=  0.000E+00 dE (1.order)= 0.000E+00
 bond charge predicted
       N       E                     dE             d eps       ncg     rms          rms(c)
DAV:   1    -0.496833033597E+03    0.14157E-03   -0.14262E-02 18648   0.382E-01    0.495E-02
DAV:   2    -0.496833174917E+03   -0.14132E-03   -0.13224E-03 17296   0.638E-02    0.242E-02
DAV:   3    -0.496833182784E+03   -0.78670E-05   -0.52916E-05 20384   0.145E-02    0.965E-03
DAV:   4    -0.496833183032E+03   -0.24852E-06   -0.31573E-06  9264   0.343E-03
 106 F= -.49683318E+03 E0= -.49682620E+03  d E =-.287870E-05  mag=    94.0000
quench:  g(F)=  0.000E+00 g(S)=  0.000E+00 dE (1.order)= 0.000E+00
 reached required accuracy - stopping structural energy minimisation
 writing wavefunctions
