  224  224    1    2
  0.1357572E+02  0.1537960E-08  0.1537962E-08  0.1395899E-08  0.5000000E-15
  1.000000000000000E-004
  CAR 
 unknown system                          
   1664      8   1208
 
  0.0000000E+00  0.0000000E+00  0.0000000E+00  0.1250000E+00
    1      -51.143184    -46.392507   1.000000   1.000000
    2      -51.142129    -46.391385   1.000000   1.000000
    3      -51.141884    -46.391050   1.000000   1.000000
    4      -51.141625    -46.391002   1.000000   1.000000
    5      -51.141491    -46.390734   1.000000   1.000000
    6      -51.141360    -46.390612   1.000000   1.000000
    7      -51.141303    -46.390498   1.000000   1.000000
    8      -51.141249    -46.390477   1.000000   1.000000
    9      -51.141224    -46.390366   1.000000   1.000000
   10      -51.141180    -46.390325   1.000000   1.000000
   11      -51.141078    -46.390249   1.000000   1.000000
   12      -51.141040    -46.390156   1.000000   1.000000
   13      -51.140993    -46.390063   1.000000   1.000000
   14      -51.140902    -46.390031   1.000000   1.000000
   15      -51.140880    -46.389968   1.000000   1.000000
   16      -51.140854    -46.389942   1.000000   1.000000
   17      -51.140817    -46.389925   1.000000   1.000000
   18      -51.140793    -46.389857   1.000000   1.000000
   19      -51.140758    -46.389794   1.000000   1.000000
   20      -51.140695    -46.389774   1.000000   1.000000
   21      -51.140684    -46.389712   1.000000   1.000000
   22      -51.140679    -46.389671   1.000000   1.000000
   23      -51.140629    -46.389653   1.000000   1.000000
   24      -51.140617    -46.389632   1.000000   1.000000
   25      -51.140596    -46.389611   1.000000   1.000000
   26      -51.140547    -46.389581   1.000000   1.000000
   27      -51.140533    -46.389562   1.000000   1.000000
   28      -51.140520    -46.389531   1.000000   1.000000
   29      -51.140503    -46.389515   1.000000   1.000000
   30      -51.140461    -46.389461   1.000000   1.000000
   31      -51.140439    -46.389390   1.000000   1.000000
   32      -51.140417    -46.389330   1.000000   1.000000
   33      -51.140332    -46.389201   1.000000   1.000000
   34      -51.140215    -46.389064   1.000000   1.000000
   35      -51.140147    -46.388910   1.000000   1.000000
   36      -51.140103    -46.388861   1.000000   1.000000
   37      -51.140082    -46.388857   1.000000   1.000000
   38      -51.140063    -46.388812   1.000000   1.000000
   39      -51.140057    -46.388808   1.000000   1.000000
   40      -51.140054    -46.388801   1.000000   1.000000
   41      -51.140026    -46.388774   1.000000   1.000000
   42      -51.139996    -46.388734   1.000000   1.000000
   43      -51.139974    -46.388720   1.000000   1.000000
   44      -51.139971    -46.388706   1.000000   1.000000
   45      -51.139950    -46.388682   1.000000   1.000000
   46      -51.139907    -46.388629   1.000000   1.000000
   47      -51.139888    -46.388609   1.000000   1.000000
   48      -51.139874    -46.388594   1.000000   1.000000
   49      -51.139837    -46.388558   1.000000   1.000000
   50      -51.139826    -46.388529   1.000000   1.000000
   51      -51.139803    -46.388486   1.000000   1.000000
   52      -51.139701    -46.388416   1.000000   1.000000
   53      -51.139659    -46.388369   1.000000   1.000000
   54      -51.139655    -46.388345   1.000000   1.000000
   55      -51.139540    -46.388163   1.000000   1.000000
   56      -51.139535    -46.388145   1.000000   1.000000
   57      -51.139444    -46.388023   1.000000   1.000000
   58      -51.139407    -46.388006   1.000000   1.000000
   59      -51.139327    -46.387892   1.000000   1.000000
   60      -51.139174    -46.387792   1.000000   1.000000
   61      -51.139061    -46.387704   1.000000   1.000000
   62      -51.139030    -46.387542   1.000000   1.000000
   63      -51.138380    -46.387089   1.000000   1.000000
   64      -51.137919    -46.386462   1.000000   1.000000
   65      -49.650034    -45.930748   1.000000   1.000000
   66      -49.648427    -45.930541   1.000000   1.000000
   67      -49.648268    -45.929705   1.000000   1.000000
   68      -49.647799    -45.929544   1.000000   1.000000
   69      -49.647756    -45.929302   1.000000   1.000000
   70      -49.647697    -45.929199   1.000000   1.000000
   71      -49.647619    -45.929100   1.000000   1.000000
   72      -49.647553    -45.929031   1.000000   1.000000
   73      -49.647508    -45.929003   1.000000   1.000000
   74      -49.647414    -45.928883   1.000000   1.000000
   75      -49.647407    -45.928862   1.000000   1.000000
   76      -49.647376    -45.928822   1.000000   1.000000
   77      -49.647322    -45.928777   1.000000   1.000000
   78      -49.647315    -45.928696   1.000000   1.000000
   79      -49.647300    -45.928656   1.000000   1.000000
   80      -49.647244    -45.928626   1.000000   1.000000
   81      -49.647212    -45.928598   1.000000   1.000000
   82      -49.647184    -45.928536   1.000000   1.000000
   83      -49.647126    -45.928491   1.000000   1.000000
   84      -49.647118    -45.928418   1.000000   1.000000
   85      -49.647096    -45.928400   1.000000   1.000000
   86      -49.647092    -45.928394   1.000000   1.000000
   87      -49.647050    -45.928392   1.000000   1.000000
   88      -49.647013    -45.928365   1.000000   1.000000
   89      -49.646985    -45.928356   1.000000   1.000000
   90      -49.646975    -45.928312   1.000000   1.000000
   91      -49.646922    -45.928293   1.000000   1.000000
   92      -49.646897    -45.928266   1.000000   1.000000
   93      -49.646830    -45.928235   1.000000   1.000000
   94      -49.646805    -45.928208   1.000000   1.000000
   95      -49.646764    -45.928201   1.000000   1.000000
   96      -49.646752    -45.928151   1.000000   1.000000
   97      -49.646708    -45.928097   1.000000   1.000000
   98      -49.646683    -45.928068   1.000000   1.000000
   99      -49.646621    -45.928049   1.000000   1.000000
  100      -49.646590    -45.928022   1.000000   1.000000
  101      -49.646540    -45.927950   1.000000   1.000000
  102      -49.646532    -45.927898   1.000000   1.000000
  103      -49.646504    -45.927888   1.000000   1.000000
  104      -49.646454    -45.927850   1.000000   1.000000
  105      -49.646403    -45.927842   1.000000   1.000000
  106      -49.646387    -45.927801   1.000000   1.000000
  107      -49.646321    -45.927796   1.000000   1.000000
  108      -49.646277    -45.927786   1.000000   1.000000
  109      -49.646227    -45.927740   1.000000   1.000000
  110      -49.646219    -45.927706   1.000000   1.000000
  111      -49.646195    -45.927685   1.000000   1.000000
  112      -49.646107    -45.927676   1.000000   1.000000
  113      -49.646082    -45.927595   1.000000   1.000000
  114      -49.646076    -45.927556   1.000000   1.000000
  115      -49.646050    -45.927492   1.000000   1.000000
  116      -49.645992    -45.927477   1.000000   1.000000
  117      -49.645943    -45.927432   1.000000   1.000000
  118      -49.645863    -45.927408   1.000000   1.000000
  119      -49.645843    -45.927377   1.000000   1.000000
  120      -49.645837    -45.927362   1.000000   1.000000
  121      -49.645801    -45.927320   1.000000   1.000000
  122      -49.645772    -45.927313   1.000000   1.000000
  123      -49.645750    -45.927285   1.000000   1.000000
  124      -49.645730    -45.927267   1.000000   1.000000
  125      -49.645656    -45.927241   1.000000   1.000000
  126      -49.645651    -45.927183   1.000000   1.000000
  127      -49.645619    -45.927175   1.000000   1.000000
  128      -49.645568    -45.927149   1.000000   1.000000
  129      -49.645489    -45.927098   1.000000   1.000000
  130      -49.645473    -45.927084   1.000000   1.000000
  131      -49.645452    -45.927048   1.000000   1.000000
  132      -49.645416    -45.927043   1.000000   1.000000
  133      -49.645405    -45.927019   1.000000   1.000000
  134      -49.645396    -45.927005   1.000000   1.000000
  135      -49.645366    -45.926941   1.000000   1.000000
  136      -49.645335    -45.926930   1.000000   1.000000
  137      -49.645309    -45.926910   1.000000   1.000000
  138      -49.645309    -45.926897   1.000000   1.000000
  139      -49.645295    -45.926886   1.000000   1.000000
  140      -49.645206    -45.926850   1.000000   1.000000
  141      -49.645204    -45.926842   1.000000   1.000000
  142      -49.645188    -45.926799   1.000000   1.000000
  143      -49.645177    -45.926789   1.000000   1.000000
  144      -49.645162    -45.926746   1.000000   1.000000
  145      -49.645120    -45.926720   1.000000   1.000000
  146      -49.645112    -45.926717   1.000000   1.000000
  147      -49.645091    -45.926711   1.000000   1.000000
  148      -49.645007    -45.926692   1.000000   1.000000
  149      -49.645003    -45.926669   1.000000   1.000000
  150      -49.644984    -45.926626   1.000000   1.000000
  151      -49.644952    -45.926616   1.000000   1.000000
  152      -49.644949    -45.926558   1.000000   1.000000
  153      -49.644843    -45.926549   1.000000   1.000000
  154      -49.644820    -45.926503   1.000000   1.000000
  155      -49.644792    -45.926462   1.000000   1.000000
  156      -49.644762    -45.926445   1.000000   1.000000
  157      -49.644710    -45.926439   1.000000   1.000000
  158      -49.644700    -45.926413   1.000000   1.000000
  159      -49.644667    -45.926396   1.000000   1.000000
  160      -49.644663    -45.926376   1.000000   1.000000
  161      -49.644647    -45.926348   1.000000   1.000000
  162      -49.644621    -45.926338   1.000000   1.000000
  163      -49.644499    -45.926331   1.000000   1.000000
  164      -49.644482    -45.926301   1.000000   1.000000
  165      -49.644463    -45.926268   1.000000   1.000000
  166      -49.644425    -45.926225   1.000000   1.000000
  167      -49.644417    -45.926178   1.000000   1.000000
  168      -49.644377    -45.926157   1.000000   1.000000
  169      -49.644323    -45.926148   1.000000   1.000000
  170      -49.644265    -45.926126   1.000000   1.000000
  171      -49.644263    -45.926068   1.000000   1.000000
  172      -49.644227    -45.926035   1.000000   1.000000
  173      -49.644219    -45.926012   1.000000   1.000000
  174      -49.644166    -45.925999   1.000000   1.000000
  175      -49.644153    -45.925944   1.000000   1.000000
  176      -49.644084    -45.925912   1.000000   1.000000
  177      -49.644014    -45.925872   1.000000   1.000000
  178      -49.643932    -45.925862   1.000000   1.000000
  179      -49.643917    -45.925811   1.000000   1.000000
  180      -49.643873    -45.925777   1.000000   1.000000
  181      -49.643843    -45.925761   1.000000   1.000000
  182      -49.643834    -45.925650   1.000000   1.000000
  183      -49.643769    -45.925605   1.000000   1.000000
  184      -49.643667    -45.925593   1.000000   1.000000
  185      -49.643628    -45.925525   1.000000   1.000000
  186      -49.643591    -45.925431   1.000000   1.000000
  187      -49.643482    -45.925360   1.000000   1.000000
  188      -49.643384    -45.925327   1.000000   1.000000
  189      -49.643344    -45.924928   1.000000   1.000000
  190      -49.643084    -45.924802   1.000000   1.000000
  191      -49.642841    -45.924541   1.000000   1.000000
  192      -49.642286    -45.923996   1.000000   1.000000
  193      -39.641082    -39.640165   1.000000   1.000000
  194      -39.641036    -39.640118   1.000000   1.000000
  195      -39.633724    -39.632851   1.000000   1.000000
  196      -39.633473    -39.632600   1.000000   1.000000
  197      -39.633429    -39.632557   1.000000   1.000000
  198      -39.633411    -39.632538   1.000000   1.000000
  199      -39.633365    -39.632493   1.000000   1.000000
  200      -39.633347    -39.632475   1.000000   1.000000
  201      -39.633332    -39.632459   1.000000   1.000000
  202      -39.633174    -39.632302   1.000000   1.000000
  203      -39.627944    -39.627106   1.000000   1.000000
  204      -39.627857    -39.627020   1.000000   1.000000
  205      -39.627793    -39.626956   1.000000   1.000000
  206      -39.627774    -39.626936   1.000000   1.000000
  207      -39.627759    -39.626921   1.000000   1.000000
  208      -39.627740    -39.626902   1.000000   1.000000
  209      -39.627686    -39.626848   1.000000   1.000000
  210      -39.627554    -39.626716   1.000000   1.000000
  211      -39.616259    -39.615483   1.000000   1.000000
  212      -39.616050    -39.615273   1.000000   1.000000
  213      -39.615999    -39.615223   1.000000   1.000000
  214      -39.615969    -39.615192   1.000000   1.000000
  215      -39.615767    -39.614989   1.000000   1.000000
  216      -39.615593    -39.614813   1.000000   1.000000
  217      -39.615561    -39.614782   1.000000   1.000000
  218      -39.615538    -39.614758   1.000000   1.000000
  219      -39.615441    -39.614670   1.000000   1.000000
  220      -39.615260    -39.614493   1.000000   1.000000
  221      -39.615238    -39.614472   1.000000   1.000000
  222      -39.615202    -39.614434   1.000000   1.000000
  223      -39.615167    -39.614399   1.000000   1.000000
  224      -39.615151    -39.614384   1.000000   1.000000
  225      -39.615148    -39.614381   1.000000   1.000000
  226      -39.615135    -39.614368   1.000000   1.000000
  227      -39.615053    -39.614284   1.000000   1.000000
  228      -39.614993    -39.614225   1.000000   1.000000
  229      -39.614969    -39.614200   1.000000   1.000000
  230      -39.614914    -39.614145   1.000000   1.000000
  231      -39.614912    -39.614143   1.000000   1.000000
  232      -39.614895    -39.614127   1.000000   1.000000
  233      -39.614835    -39.614066   1.000000   1.000000
  234      -39.614788    -39.614021   1.000000   1.000000
  235      -39.614366    -39.613609   1.000000   1.000000
  236      -39.614298    -39.613540   1.000000   1.000000
  237      -39.614259    -39.613501   1.000000   1.000000
  238      -39.614228    -39.613469   1.000000   1.000000
  239      -39.603972    -39.603253   1.000000   1.000000
  240      -39.603923    -39.603204   1.000000   1.000000
  241      -39.603869    -39.603151   1.000000   1.000000
  242      -39.603808    -39.603089   1.000000   1.000000
  243      -39.603799    -39.603080   1.000000   1.000000
  244      -39.603781    -39.603061   1.000000   1.000000
  245      -39.603761    -39.603042   1.000000   1.000000
  246      -39.603633    -39.602914   1.000000   1.000000
  247      -39.599817    -39.599111   1.000000   1.000000
  248      -39.599627    -39.598921   1.000000   1.000000
  249      -39.599593    -39.598887   1.000000   1.000000
  250      -39.599572    -39.598866   1.000000   1.000000
  251      -39.599527    -39.598821   1.000000   1.000000
  252      -39.599510    -39.598804   1.000000   1.000000
  253      -39.599486    -39.598780   1.000000   1.000000
  254      -39.599330    -39.598624   1.000000   1.000000
  255      -39.593320    -39.592637   1.000000   1.000000
  256      -39.593255    -39.592572   1.000000   1.000000
  257      -12.747249    -12.467783   1.000000   1.000000
  258      -12.747172    -12.467702   1.000000   1.000000
  259      -12.720103    -12.440390   1.000000   1.000000
  260      -12.719392    -12.439641   1.000000   1.000000
  261      -12.719356    -12.439598   1.000000   1.000000
  262      -12.719333    -12.439577   1.000000   1.000000
  263      -12.719280    -12.439528   1.000000   1.000000
  264      -12.719263    -12.439510   1.000000   1.000000
  265      -12.719248    -12.439506   1.000000   1.000000
  266      -12.718759    -12.438986   1.000000   1.000000
  267      -12.697432    -12.417298   1.000000   1.000000
  268      -12.697039    -12.416867   1.000000   1.000000
  269      -12.695174    -12.415572   1.000000   1.000000
  270      -12.694745    -12.415136   1.000000   1.000000
  271      -12.694720    -12.415114   1.000000   1.000000
  272      -12.694440    -12.414823   1.000000   1.000000
  273      -12.692579    -12.413489   1.000000   1.000000
  274      -12.692216    -12.413121   1.000000   1.000000
  275      -12.691513    -12.411535   1.000000   1.000000
  276      -12.691241    -12.411204   1.000000   1.000000
  277      -12.691217    -12.411187   1.000000   1.000000
  278      -12.690795    -12.410774   1.000000   1.000000
  279      -12.672984    -12.392997   1.000000   1.000000
  280      -12.672689    -12.392675   1.000000   1.000000
  281      -12.672648    -12.392630   1.000000   1.000000
  282      -12.672377    -12.392352   1.000000   1.000000
  283      -12.667871    -12.388991   1.000000   1.000000
  284      -12.667619    -12.388730   1.000000   1.000000
  285      -12.667578    -12.388686   1.000000   1.000000
  286      -12.667267    -12.388350   1.000000   1.000000
  287      -12.654527    -12.374573   1.000000   1.000000
  288      -12.643750    -12.366025   1.000000   1.000000
  289       -7.800025     -7.599025   1.000000   1.000000
  290       -7.748224     -7.551502   1.000000   1.000000
  291       -7.505600     -7.319289   1.000000   1.000000
  292       -7.505453     -7.319179   1.000000   1.000000
  293       -7.505345     -7.319080   1.000000   1.000000
  294       -7.505274     -7.318962   1.000000   1.000000
  295       -7.501026     -7.308924   1.000000   1.000000
  296       -7.500963     -7.308841   1.000000   1.000000
  297       -7.500882     -7.308752   1.000000   1.000000
  298       -7.500594     -7.308524   1.000000   1.000000
  299       -7.315202     -7.117748   1.000000   1.000000
  300       -7.315106     -7.117652   1.000000   1.000000
  301       -7.297289     -7.094010   1.000000   1.000000
  302       -7.297269     -7.093991   1.000000   1.000000
  303       -7.296458     -7.093172   1.000000   1.000000
  304       -7.296210     -7.092920   1.000000   1.000000
  305       -7.269272     -7.061974   1.000000   1.000000
  306       -7.269169     -7.061871   1.000000   1.000000
  307       -7.088629     -6.893958   1.000000   1.000000
  308       -7.084763     -6.893847   1.000000   1.000000
  309       -7.084656     -6.893821   1.000000   1.000000
  310       -7.084622     -6.893723   1.000000   1.000000
  311       -7.084530     -6.796741   1.000000   1.000000
  312       -7.046557     -6.783776   1.000000   1.000000
  313       -7.000033     -6.768204   1.000000   1.000000
  314       -6.999826     -6.768009   1.000000   1.000000
  315       -6.999822     -6.767916   1.000000   1.000000
  316       -6.999808     -6.767888   1.000000   1.000000
  317       -6.999717     -6.766196   1.000000   1.000000
  318       -6.999712     -6.766140   1.000000   1.000000
  319       -6.999691     -6.766127   1.000000   1.000000
  320       -6.999553     -6.766111   1.000000   1.000000
  321       -6.994339     -6.766032   1.000000   1.000000
  322       -6.994235     -6.766029   1.000000   1.000000
  323       -6.994139     -6.766004   1.000000   1.000000
  324       -6.993942     -6.765567   1.000000   1.000000
  325       -6.955863     -6.745044   1.000000   1.000000
  326       -6.955764     -6.744944   1.000000   1.000000
  327       -6.955731     -6.744840   1.000000   1.000000
  328       -6.955622     -6.744643   1.000000   1.000000
  329       -6.948375     -6.697521   1.000000   1.000000
  330       -6.948263     -6.697426   1.000000   1.000000
  331       -6.928732     -6.689194   1.000000   1.000000
  332       -6.928670     -6.689123   1.000000   1.000000
  333       -6.928578     -6.689029   1.000000   1.000000
  334       -6.928392     -6.688823   1.000000   1.000000
  335       -6.911331     -6.639474   1.000000   1.000000
  336       -6.911304     -6.639156   1.000000   1.000000
  337       -6.886137     -6.639079   1.000000   1.000000
  338       -6.886089     -6.639077   1.000000   1.000000
  339       -6.885269     -6.639033   1.000000   1.000000
  340       -6.885058     -6.638992   1.000000   1.000000
  341       -6.877007     -6.638969   1.000000   1.000000
  342       -6.876869     -6.638946   1.000000   1.000000
  343       -6.876867     -6.638714   1.000000   1.000000
  344       -6.876850     -6.638616   1.000000   1.000000
  345       -6.876760     -6.637985   1.000000   1.000000
  346       -6.876757     -6.637586   1.000000   1.000000
  347       -6.876734     -6.628066   1.000000   1.000000
  348       -6.876461     -6.627989   1.000000   1.000000
  349       -6.832644     -6.586681   1.000000   1.000000
  350       -6.832527     -6.586563   1.000000   1.000000
  351       -6.794264     -6.499084   1.000000   1.000000
  352       -6.794242     -6.499061   1.000000   1.000000
  353       -1.525519     -0.414702   1.000000   1.000000
  354       -1.467780     -0.414574   1.000000   1.000000
  355       -1.467679     -0.414435   1.000000   1.000000
  356       -1.467646     -0.414358   1.000000   1.000000
  357       -1.467574      0.026159   1.000000   1.000000
  358       -1.460439      0.026340   1.000000   1.000000
  359       -1.460336      0.026440   1.000000   1.000000
  360       -1.460161      0.026495   1.000000   1.000000
  361       -1.460094      0.037698   1.000000   1.000000
  362       -1.421439      0.037889   1.000000   1.000000
  363       -1.421298      0.037963   1.000000   1.000000
  364       -1.382965      0.037998   1.000000   1.000000
  365       -1.382814      0.038090   1.000000   1.000000
  366       -1.382713      0.038169   1.000000   1.000000
  367       -1.382618      0.038223   1.000000   1.000000
  368       -1.332897      0.038384   1.000000   1.000000
  369       -1.332666      0.102772   1.000000   1.000000
  370       -1.332551      0.103020   1.000000   1.000000
  371       -1.332535      0.207309   1.000000   1.000000
  372       -1.332435      0.207533   1.000000   1.000000
  373       -1.332410      0.207578   1.000000   1.000000
  374       -1.332318      0.207740   1.000000   1.000000
  375       -1.332219      0.304158   1.000000   1.000000
  376       -1.292583      0.392340   1.000000   1.000000
  377       -1.292482      0.392574   1.000000   1.000000
  378       -1.292468      0.392658   1.000000   1.000000
  379       -1.292384      0.392790   1.000000   1.000000
  380       -1.256811      0.490747   1.000000   1.000000
  381       -1.256783      0.491033   1.000000   1.000000
  382       -1.232231      0.497590   1.000000   1.000000
  383       -1.232114      0.497627   1.000000   1.000000
  384       -1.220394      0.497743   1.000000   1.000000
  385       -0.822779      0.497844   1.000000   1.000000
  386       -0.822743      0.510680   1.000000   1.000000
  387       -0.822660      0.510719   1.000000   1.000000
  388       -0.822616      0.531151   1.000000   1.000000
  389       -0.722677      0.531205   1.000000   1.000000
  390       -0.722624      0.531307   1.000000   1.000000
  391       -0.699167      0.531353   1.000000   1.000000
  392       -0.699101      0.574239   1.000000   1.000000
  393       -0.699011      0.574279   1.000000   1.000000
  394       -0.698905      0.574324   1.000000   1.000000
  395       -0.688464      0.574381   1.000000   1.000000
  396       -0.688433      0.574397   1.000000   1.000000
  397       -0.688191      0.574429   1.000000   1.000000
  398       -0.688157      0.574494   1.000000   1.000000
  399       -0.666699      0.574536   1.000000   1.000000
  400       -0.666667      0.638610   1.000000   1.000000
  401       -0.666409      0.666234   1.000000   1.000000
  402       -0.666386      0.666405   1.000000   1.000000
  403       -0.651950      0.733063   1.000000   1.000000
  404       -0.651915      0.733112   1.000000   1.000000
  405       -0.651830      0.931385   1.000000   1.000000
  406       -0.651747      0.932583   1.000000   1.000000
  407       -0.589451      0.935601   1.000000   1.000000
  408       -0.589376      0.935665   1.000000   1.000000
  409       -0.576736      0.948878   1.000000   1.000000
  410       -0.576688      0.948924   1.000000   1.000000
  411       -0.576430      0.948997   1.000000   1.000000
  412       -0.576327      0.949078   1.000000   1.000000
  413       -0.553390      0.985912   1.000000   1.000000
  414       -0.553363      0.986124   1.000000   1.000000
  415       -0.553085      0.986381   1.000000   1.000000
  416       -0.553008      0.986415   1.000000   1.000000
  417       -0.497623      0.992779   1.000000   1.000000
  418       -0.496865      0.992982   1.000000   1.000000
  419       -0.472899      1.008865   1.000000   1.000000
  420       -0.472672      1.008876   1.000000   1.000000
  421       -0.461561      1.009006   1.000000   1.000000
  422       -0.461533      1.009032   1.000000   1.000000
  423       -0.461255      1.018476   1.000000   1.000000
  424       -0.461154      1.049015   1.000000   1.000000
  425       -0.459773      1.049202   1.000000   1.000000
  426       -0.459744      1.051569   1.000000   1.000000
  427       -0.459448      1.051740   1.000000   1.000000
  428       -0.459357      1.051779   1.000000   1.000000
  429       -0.410043      1.051860   1.000000   1.000000
  430       -0.409985      1.078705   1.000000   1.000000
  431       -0.407604      1.078831   1.000000   1.000000
  432       -0.407554      1.078846   1.000000   1.000000
  433       -0.407504      1.078894   1.000000   1.000000
  434       -0.407416      1.079656   1.000000   1.000000
  435       -0.407385      1.079665   1.000000   1.000000
  436       -0.407315      1.079974   1.000000   1.000000
  437       -0.383294      1.080184   1.000000   1.000000
  438       -0.383272      1.192779   1.000000   1.000000
  439       -0.378172      1.192933   1.000000   1.000000
  440       -0.368935      1.376440   1.000000   1.000000
  441       -0.368834      1.390351   1.000000   1.000000
  442       -0.368755      1.391172   1.000000   1.000000
  443       -0.368709      1.391230   1.000000   1.000000
  444       -0.368648      1.391274   1.000000   1.000000
  445       -0.368621      1.391360   1.000000   1.000000
  446       -0.368562      1.437281   1.000000   1.000000
  447       -0.368477      1.450170   1.000000   1.000000
  448       -0.353544      1.526220   1.000000   1.000000
  449       -0.353536      1.526390   1.000000   1.000000
  450       -0.349054      1.526438   1.000000   1.000000
  451       -0.341791      1.526587   1.000000   1.000000
  452       -0.335810      1.528788   1.000000   1.000000
  453       -0.335779      1.528994   1.000000   1.000000
  454       -0.335415      1.529011   1.000000   1.000000
  455       -0.335364      1.529136   1.000000   1.000000
  456       -0.334214      1.558185   1.000000   1.000000
  457       -0.334200      1.558217   1.000000   1.000000
  458       -0.334037      1.558433   1.000000   1.000000
  459       -0.334026      1.558507   1.000000   1.000000
  460       -0.324289      1.566556   1.000000   1.000000
  461       -0.324226      1.566764   1.000000   1.000000
  462       -0.323907      1.566815   1.000000   1.000000
  463       -0.323842      1.566979   1.000000   1.000000
  464       -0.321670      1.568149   1.000000   1.000000
  465       -0.321629      1.568312   1.000000   1.000000
  466       -0.321245      1.568407   1.000000   1.000000
  467       -0.321177      1.568510   1.000000   1.000000
  468       -0.303855      1.586604   1.000000   1.000000
  469       -0.295920      1.586622   1.000000   1.000000
  470       -0.287951      1.695716   1.000000   1.000000
  471       -0.287876      1.695749   1.000000   1.000000
  472       -0.287821      1.741054   1.000000   1.000000
  473       -0.287761      1.741087   1.000000   1.000000
  474       -0.280400      1.741181   1.000000   1.000000
  475       -0.280370      1.741251   1.000000   1.000000
  476       -0.275080      1.746712   1.000000   1.000000
  477       -0.275070      1.746877   1.000000   1.000000
  478       -0.274814      1.746916   1.000000   1.000000
  479       -0.274796      1.746953   1.000000   1.000000
  480       -0.241639      1.779047   1.000000   1.000000
  481       -0.241615      1.780595   1.000000   1.000000
  482       -0.241584      1.780679   1.000000   1.000000
  483       -0.241561      1.836817   1.000000   1.000000
  484       -0.241431      1.836955   1.000000   1.000000
  485       -0.241391      1.837312   1.000000   1.000000
  486       -0.241302      1.837474   1.000000   1.000000
  487       -0.241285      1.837731   1.000000   1.000000
  488       -0.207402      1.837791   1.000000   1.000000
  489       -0.207394      1.838425   1.000000   1.000000
  490       -0.199703      1.838515   1.000000   1.000000
  491       -0.199659      1.866219   1.000000   1.000000
  492       -0.199478      1.866423   1.000000   1.000000
  493       -0.199411      1.913218   1.000000   1.000000
  494       -0.194018      1.913488   1.000000   1.000000
  495       -0.194005      1.913515   1.000000   1.000000
  496       -0.163966      1.913563   1.000000   1.000000
  497       -0.163936      1.913591   1.000000   1.000000
  498       -0.163783      1.913651   1.000000   1.000000
  499       -0.163737      1.913682   1.000000   1.000000
  500       -0.156674      1.913869   1.000000   1.000000
  501       -0.156622      1.926827   1.000000   1.000000
  502       -0.156208      1.926924   1.000000   1.000000
  503       -0.156149      1.927041   1.000000   1.000000
  504       -0.139051      1.927317   1.000000   1.000000
  505       -0.139040      2.133174   1.000000   1.000000
  506       -0.138833      2.133314   1.000000   1.000000
  507       -0.138806      2.191268   1.000000   1.000000
  508       -0.090965      2.193187   1.000000   1.000000
  509       -0.090958      2.300574   1.000000   1.000000
  510       -0.082577      2.300736   1.000000   1.000000
  511       -0.082508      2.301099   1.000000   1.000000
  512       -0.082447      2.301247   1.000000   1.000000