 108 108   0   0
  0.1367340E+02  0.1151037E-08  0.1132740E-08  0.1132740E-08  0.5000000E-15
  1.000000000000000E-004
  CAR 
 unknown system                          
     17.82469179    -54.67263974  301      5.28869488      1.00000000
    -54.673  0.0000E+00  0.0000E+00  0.0000E+00  0.0000E+00
    -54.431  0.0000E+00  0.0000E+00  0.0000E+00  0.0000E+00
    -54.189  0.0000E+00  0.0000E+00  0.0000E+00  0.0000E+00
    -53.948  0.0000E+00  0.0000E+00  0.0000E+00  0.0000E+00
    -53.706  0.0000E+00  0.0000E+00  0.0000E+00  0.0000E+00
    -53.464  0.0000E+00  0.0000E+00  0.0000E+00  0.0000E+00
    -53.223  0.0000E+00  0.0000E+00  0.0000E+00  0.0000E+00
    -52.981  0.0000E+00  0.0000E+00  0.0000E+00  0.0000E+00
    -52.739  0.0000E+00  0.0000E+00  0.0000E+00  0.0000E+00
    -52.498  0.0000E+00  0.0000E+00  0.0000E+00  0.0000E+00
    -52.256  0.0000E+00  0.0000E+00  0.0000E+00  0.0000E+00
    -52.014  0.0000E+00  0.0000E+00  0.0000E+00  0.0000E+00
    -51.773  0.0000E+00  0.0000E+00  0.0000E+00  0.0000E+00
    -51.531  0.7708E-04  0.0000E+00  0.1863E-04  0.0000E+00
    -51.289  0.9662E+02  0.0000E+00  0.2335E+02  0.0000E+00
    -51.048  0.3940E+02  0.0000E+00  0.3287E+02  0.0000E+00
    -50.806  0.1295E+02  0.0000E+00  0.3600E+02  0.0000E+00
    -50.564  0.0000E+00  0.0000E+00  0.3600E+02  0.0000E+00
    -50.323  0.3602E-04  0.0000E+00  0.3600E+02  0.0000E+00
    -50.081  0.9556E+02  0.0000E+00  0.5909E+02  0.0000E+00
    -49.839  0.3864E+02  0.0000E+00  0.6843E+02  0.0000E+00
    -49.598  0.1304E+03  0.0000E+00  0.9995E+02  0.0000E+00
    -49.356  0.3330E+02  0.0000E+00  0.1080E+03  0.0000E+00
    -49.115  0.0000E+00  0.0000E+00  0.1080E+03  0.0000E+00
    -48.873  0.0000E+00  0.0000E+00  0.1080E+03  0.0000E+00
    -48.631  0.0000E+00  0.0000E+00  0.1080E+03  0.0000E+00
    -48.390  0.0000E+00  0.0000E+00  0.1080E+03  0.0000E+00
    -48.148  0.0000E+00  0.0000E+00  0.1080E+03  0.0000E+00
    -47.906  0.0000E+00  0.0000E+00  0.1080E+03  0.0000E+00
    -47.665  0.0000E+00  0.0000E+00  0.1080E+03  0.0000E+00
    -47.423  0.0000E+00  0.0000E+00  0.1080E+03  0.0000E+00
    -47.181  0.0000E+00  0.0000E+00  0.1080E+03  0.0000E+00
    -46.940  0.0000E+00  0.0000E+00  0.1080E+03  0.0000E+00
    -46.698  0.0000E+00  0.5373E+00  0.1080E+03  0.1298E+00
    -46.456  0.0000E+00  0.9878E+02  0.1080E+03  0.2400E+02
    -46.215  0.0000E+00  0.1649E+03  0.1080E+03  0.6386E+02
    -45.973  0.0000E+00  0.8931E+02  0.1080E+03  0.8544E+02
    -45.731  0.0000E+00  0.9333E+02  0.1080E+03  0.1080E+03
    -45.490  0.0000E+00  0.1918E-02  0.1080E+03  0.1080E+03
    -45.248  0.0000E+00  0.0000E+00  0.1080E+03  0.1080E+03
    -45.006  0.0000E+00  0.0000E+00  0.1080E+03  0.1080E+03
    -44.765  0.0000E+00  0.0000E+00  0.1080E+03  0.1080E+03
    -44.523  0.0000E+00  0.0000E+00  0.1080E+03  0.1080E+03
    -44.281  0.0000E+00  0.0000E+00  0.1080E+03  0.1080E+03
    -44.040  0.0000E+00  0.0000E+00  0.1080E+03  0.1080E+03
    -43.798  0.0000E+00  0.0000E+00  0.1080E+03  0.1080E+03
    -43.556  0.0000E+00  0.0000E+00  0.1080E+03  0.1080E+03
    -43.315  0.0000E+00  0.0000E+00  0.1080E+03  0.1080E+03
    -43.073  0.0000E+00  0.0000E+00  0.1080E+03  0.1080E+03
    -42.831  0.0000E+00  0.0000E+00  0.1080E+03  0.1080E+03
    -42.590  0.0000E+00  0.0000E+00  0.1080E+03  0.1080E+03
    -42.348  0.0000E+00  0.0000E+00  0.1080E+03  0.1080E+03
    -42.106  0.0000E+00  0.0000E+00  0.1080E+03  0.1080E+03
    -41.865  0.0000E+00  0.0000E+00  0.1080E+03  0.1080E+03
    -41.623  0.0000E+00  0.0000E+00  0.1080E+03  0.1080E+03
    -41.381  0.0000E+00  0.0000E+00  0.1080E+03  0.1080E+03
    -41.140  0.0000E+00  0.0000E+00  0.1080E+03  0.1080E+03
    -40.898  0.0000E+00  0.0000E+00  0.1080E+03  0.1080E+03
    -40.656  0.0000E+00  0.0000E+00  0.1080E+03  0.1080E+03
    -40.415  0.2259E-13  0.4535E-13  0.1080E+03  0.1080E+03
    -40.173  0.9752E+01  0.1129E+02  0.1104E+03  0.1107E+03
    -39.932  0.8956E+02  0.8802E+02  0.1320E+03  0.1320E+03
    -39.690  0.0000E+00  0.0000E+00  0.1320E+03  0.1320E+03
    -39.448  0.0000E+00  0.0000E+00  0.1320E+03  0.1320E+03
    -39.207  0.0000E+00  0.0000E+00  0.1320E+03  0.1320E+03
    -38.965  0.0000E+00  0.0000E+00  0.1320E+03  0.1320E+03
    -38.723  0.0000E+00  0.0000E+00  0.1320E+03  0.1320E+03
    -38.482  0.0000E+00  0.0000E+00  0.1320E+03  0.1320E+03
    -38.240  0.0000E+00  0.0000E+00  0.1320E+03  0.1320E+03
    -37.998  0.0000E+00  0.0000E+00  0.1320E+03  0.1320E+03
    -37.757  0.0000E+00  0.0000E+00  0.1320E+03  0.1320E+03
    -37.515  0.0000E+00  0.0000E+00  0.1320E+03  0.1320E+03
    -37.273  0.0000E+00  0.0000E+00  0.1320E+03  0.1320E+03
    -37.032  0.0000E+00  0.0000E+00  0.1320E+03  0.1320E+03
    -36.790  0.0000E+00  0.0000E+00  0.1320E+03  0.1320E+03
    -36.548  0.0000E+00  0.0000E+00  0.1320E+03  0.1320E+03
    -36.307  0.0000E+00  0.0000E+00  0.1320E+03  0.1320E+03
    -36.065  0.0000E+00  0.0000E+00  0.1320E+03  0.1320E+03
    -35.823  0.0000E+00  0.0000E+00  0.1320E+03  0.1320E+03
    -35.582  0.0000E+00  0.0000E+00  0.1320E+03  0.1320E+03
    -35.340  0.0000E+00  0.0000E+00  0.1320E+03  0.1320E+03
    -35.098  0.0000E+00  0.0000E+00  0.1320E+03  0.1320E+03
    -34.857  0.0000E+00  0.0000E+00  0.1320E+03  0.1320E+03
    -34.615  0.0000E+00  0.0000E+00  0.1320E+03  0.1320E+03
    -34.373  0.0000E+00  0.0000E+00  0.1320E+03  0.1320E+03
    -34.132  0.0000E+00  0.0000E+00  0.1320E+03  0.1320E+03
    -33.890  0.0000E+00  0.0000E+00  0.1320E+03  0.1320E+03
    -33.648  0.0000E+00  0.0000E+00  0.1320E+03  0.1320E+03
    -33.407  0.0000E+00  0.0000E+00  0.1320E+03  0.1320E+03
    -33.165  0.0000E+00  0.0000E+00  0.1320E+03  0.1320E+03
    -32.923  0.0000E+00  0.0000E+00  0.1320E+03  0.1320E+03
    -32.682  0.0000E+00  0.0000E+00  0.1320E+03  0.1320E+03
    -32.440  0.0000E+00  0.0000E+00  0.1320E+03  0.1320E+03
    -32.198  0.0000E+00  0.0000E+00  0.1320E+03  0.1320E+03
    -31.957  0.0000E+00  0.0000E+00  0.1320E+03  0.1320E+03
    -31.715  0.0000E+00  0.0000E+00  0.1320E+03  0.1320E+03
    -31.473  0.0000E+00  0.0000E+00  0.1320E+03  0.1320E+03
    -31.232  0.0000E+00  0.0000E+00  0.1320E+03  0.1320E+03
    -30.990  0.0000E+00  0.0000E+00  0.1320E+03  0.1320E+03
    -30.749  0.0000E+00  0.0000E+00  0.1320E+03  0.1320E+03
    -30.507  0.0000E+00  0.0000E+00  0.1320E+03  0.1320E+03
    -30.265  0.0000E+00  0.0000E+00  0.1320E+03  0.1320E+03
    -30.024  0.0000E+00  0.0000E+00  0.1320E+03  0.1320E+03
    -29.782  0.0000E+00  0.0000E+00  0.1320E+03  0.1320E+03
    -29.540  0.0000E+00  0.0000E+00  0.1320E+03  0.1320E+03
    -29.299  0.0000E+00  0.0000E+00  0.1320E+03  0.1320E+03
    -29.057  0.0000E+00  0.0000E+00  0.1320E+03  0.1320E+03
    -28.815  0.0000E+00  0.0000E+00  0.1320E+03  0.1320E+03
    -28.574  0.0000E+00  0.0000E+00  0.1320E+03  0.1320E+03
    -28.332  0.0000E+00  0.0000E+00  0.1320E+03  0.1320E+03
    -28.090  0.0000E+00  0.0000E+00  0.1320E+03  0.1320E+03
    -27.849  0.0000E+00  0.0000E+00  0.1320E+03  0.1320E+03
    -27.607  0.0000E+00  0.0000E+00  0.1320E+03  0.1320E+03
    -27.365  0.0000E+00  0.0000E+00  0.1320E+03  0.1320E+03
    -27.124  0.0000E+00  0.0000E+00  0.1320E+03  0.1320E+03
    -26.882  0.0000E+00  0.0000E+00  0.1320E+03  0.1320E+03
    -26.640  0.0000E+00  0.0000E+00  0.1320E+03  0.1320E+03
    -26.399  0.0000E+00  0.0000E+00  0.1320E+03  0.1320E+03
    -26.157  0.0000E+00  0.0000E+00  0.1320E+03  0.1320E+03
    -25.915  0.0000E+00  0.0000E+00  0.1320E+03  0.1320E+03
    -25.674  0.0000E+00  0.0000E+00  0.1320E+03  0.1320E+03
    -25.432  0.0000E+00  0.0000E+00  0.1320E+03  0.1320E+03
    -25.190  0.0000E+00  0.0000E+00  0.1320E+03  0.1320E+03
    -24.949  0.0000E+00  0.0000E+00  0.1320E+03  0.1320E+03
    -24.707  0.0000E+00  0.0000E+00  0.1320E+03  0.1320E+03
    -24.465  0.0000E+00  0.0000E+00  0.1320E+03  0.1320E+03
    -24.224  0.0000E+00  0.0000E+00  0.1320E+03  0.1320E+03
    -23.982  0.0000E+00  0.0000E+00  0.1320E+03  0.1320E+03
    -23.740  0.0000E+00  0.0000E+00  0.1320E+03  0.1320E+03
    -23.499  0.0000E+00  0.0000E+00  0.1320E+03  0.1320E+03
    -23.257  0.0000E+00  0.0000E+00  0.1320E+03  0.1320E+03
    -23.015  0.0000E+00  0.0000E+00  0.1320E+03  0.1320E+03
    -22.774  0.0000E+00  0.0000E+00  0.1320E+03  0.1320E+03
    -22.532  0.0000E+00  0.0000E+00  0.1320E+03  0.1320E+03
    -22.290  0.0000E+00  0.0000E+00  0.1320E+03  0.1320E+03
    -22.049  0.0000E+00  0.0000E+00  0.1320E+03  0.1320E+03
    -21.807  0.0000E+00  0.0000E+00  0.1320E+03  0.1320E+03
    -21.566  0.0000E+00  0.0000E+00  0.1320E+03  0.1320E+03
    -21.324  0.0000E+00  0.0000E+00  0.1320E+03  0.1320E+03
    -21.082  0.0000E+00  0.0000E+00  0.1320E+03  0.1320E+03
    -20.841  0.0000E+00  0.0000E+00  0.1320E+03  0.1320E+03
    -20.599  0.0000E+00  0.0000E+00  0.1320E+03  0.1320E+03
    -20.357  0.0000E+00  0.0000E+00  0.1320E+03  0.1320E+03
    -20.116  0.0000E+00  0.0000E+00  0.1320E+03  0.1320E+03
    -19.874  0.0000E+00  0.0000E+00  0.1320E+03  0.1320E+03
    -19.632  0.0000E+00  0.0000E+00  0.1320E+03  0.1320E+03
    -19.391  0.0000E+00  0.0000E+00  0.1320E+03  0.1320E+03
    -19.149  0.0000E+00  0.0000E+00  0.1320E+03  0.1320E+03
    -18.907  0.0000E+00  0.0000E+00  0.1320E+03  0.1320E+03
    -18.666  0.0000E+00  0.0000E+00  0.1320E+03  0.1320E+03
    -18.424  0.0000E+00  0.0000E+00  0.1320E+03  0.1320E+03
    -18.182  0.0000E+00  0.0000E+00  0.1320E+03  0.1320E+03
    -17.941  0.0000E+00  0.0000E+00  0.1320E+03  0.1320E+03
    -17.699  0.0000E+00  0.0000E+00  0.1320E+03  0.1320E+03
    -17.457  0.0000E+00  0.0000E+00  0.1320E+03  0.1320E+03
    -17.216  0.0000E+00  0.0000E+00  0.1320E+03  0.1320E+03
    -16.974  0.0000E+00  0.0000E+00  0.1320E+03  0.1320E+03
    -16.732  0.0000E+00  0.0000E+00  0.1320E+03  0.1320E+03
    -16.491  0.0000E+00  0.0000E+00  0.1320E+03  0.1320E+03
    -16.249  0.0000E+00  0.0000E+00  0.1320E+03  0.1320E+03
    -16.007  0.0000E+00  0.0000E+00  0.1320E+03  0.1320E+03
    -15.766  0.0000E+00  0.0000E+00  0.1320E+03  0.1320E+03
    -15.524  0.0000E+00  0.0000E+00  0.1320E+03  0.1320E+03
    -15.282  0.0000E+00  0.0000E+00  0.1320E+03  0.1320E+03
    -15.041  0.0000E+00  0.0000E+00  0.1320E+03  0.1320E+03
    -14.799  0.0000E+00  0.0000E+00  0.1320E+03  0.1320E+03
    -14.557  0.0000E+00  0.0000E+00  0.1320E+03  0.1320E+03
    -14.316  0.0000E+00  0.0000E+00  0.1320E+03  0.1320E+03
    -14.074  0.0000E+00  0.0000E+00  0.1320E+03  0.1320E+03
    -13.832  0.3863E-12  0.0000E+00  0.1320E+03  0.1320E+03
    -13.591  0.1765E+01  0.0000E+00  0.1324E+03  0.1320E+03
    -13.349  0.5623E+02  0.6588E-06  0.1460E+03  0.1320E+03
    -13.108  0.4110E+02  0.1736E+02  0.1559E+03  0.1362E+03
    -12.866  0.2127E+00  0.7697E+02  0.1560E+03  0.1548E+03
    -12.624  0.0000E+00  0.4987E+01  0.1560E+03  0.1560E+03
    -12.383  0.0000E+00  0.0000E+00  0.1560E+03  0.1560E+03
    -12.141  0.0000E+00  0.0000E+00  0.1560E+03  0.1560E+03
    -11.899  0.0000E+00  0.0000E+00  0.1560E+03  0.1560E+03
    -11.658  0.0000E+00  0.0000E+00  0.1560E+03  0.1560E+03
    -11.416  0.0000E+00  0.0000E+00  0.1560E+03  0.1560E+03
    -11.174  0.0000E+00  0.0000E+00  0.1560E+03  0.1560E+03
    -10.933  0.0000E+00  0.0000E+00  0.1560E+03  0.1560E+03
    -10.691  0.0000E+00  0.0000E+00  0.1560E+03  0.1560E+03
    -10.449  0.0000E+00  0.0000E+00  0.1560E+03  0.1560E+03
    -10.208  0.0000E+00  0.0000E+00  0.1560E+03  0.1560E+03
     -9.966  0.0000E+00  0.0000E+00  0.1560E+03  0.1560E+03
     -9.724  0.0000E+00  0.0000E+00  0.1560E+03  0.1560E+03
     -9.483  0.0000E+00  0.0000E+00  0.1560E+03  0.1560E+03
     -9.241  0.0000E+00  0.0000E+00  0.1560E+03  0.1560E+03
     -8.999  0.0000E+00  0.0000E+00  0.1560E+03  0.1560E+03
     -8.758  0.0000E+00  0.0000E+00  0.1560E+03  0.1560E+03
     -8.516  0.0000E+00  0.0000E+00  0.1560E+03  0.1560E+03
     -8.274  0.0000E+00  0.0000E+00  0.1560E+03  0.1560E+03
     -8.033  0.0000E+00  0.0000E+00  0.1560E+03  0.1560E+03
     -7.791  0.1064E-13  0.0000E+00  0.1560E+03  0.1560E+03
     -7.549  0.1717E+00  0.1702E-16  0.1560E+03  0.1560E+03
     -7.308  0.2167E+02  0.4779E-01  0.1613E+03  0.1560E+03
     -7.066  0.4678E+02  0.2372E+02  0.1726E+03  0.1617E+03
     -6.824  0.3038E+02  0.4637E+02  0.1799E+03  0.1729E+03
     -6.583  0.3160E+00  0.2749E+02  0.1800E+03  0.1796E+03
     -6.341  0.0000E+00  0.1683E+01  0.1800E+03  0.1800E+03
     -6.099  0.0000E+00  0.0000E+00  0.1800E+03  0.1800E+03
     -5.858  0.0000E+00  0.0000E+00  0.1800E+03  0.1800E+03
     -5.616  0.0000E+00  0.0000E+00  0.1800E+03  0.1800E+03
     -5.374  0.0000E+00  0.0000E+00  0.1800E+03  0.1800E+03
     -5.133  0.0000E+00  0.0000E+00  0.1800E+03  0.1800E+03
     -4.891  0.0000E+00  0.0000E+00  0.1800E+03  0.1800E+03
     -4.649  0.0000E+00  0.0000E+00  0.1800E+03  0.1800E+03
     -4.408  0.0000E+00  0.0000E+00  0.1800E+03  0.1800E+03
     -4.166  0.0000E+00  0.0000E+00  0.1800E+03  0.1800E+03
     -3.925  0.0000E+00  0.0000E+00  0.1800E+03  0.1800E+03
     -3.683  0.0000E+00  0.0000E+00  0.1800E+03  0.1800E+03
     -3.441  0.0000E+00  0.0000E+00  0.1800E+03  0.1800E+03
     -3.200  0.0000E+00  0.0000E+00  0.1800E+03  0.1800E+03
     -2.958  0.0000E+00  0.0000E+00  0.1800E+03  0.1800E+03
     -2.716  0.0000E+00  0.0000E+00  0.1800E+03  0.1800E+03
     -2.475  0.0000E+00  0.0000E+00  0.1800E+03  0.1800E+03
     -2.233  0.1018E-01  0.0000E+00  0.1800E+03  0.1800E+03
     -1.991  0.2627E+02  0.0000E+00  0.1863E+03  0.1800E+03
     -1.750  0.5061E+02  0.0000E+00  0.1986E+03  0.1800E+03
     -1.508  0.1613E+02  0.0000E+00  0.2025E+03  0.1800E+03
     -1.266  0.1869E+02  0.0000E+00  0.2070E+03  0.1800E+03
     -1.025  0.5811E+02  0.1069E-03  0.2210E+03  0.1800E+03
     -0.783  0.7404E+02  0.1829E+01  0.2389E+03  0.1804E+03
     -0.541  0.6442E+02  0.9845E+01  0.2545E+03  0.1828E+03
     -0.300  0.6357E+02  0.2022E+02  0.2699E+03  0.1877E+03
     -0.058  0.6190E+02  0.3410E+02  0.2848E+03  0.1959E+03
      0.184  0.5481E+02  0.2517E+02  0.2981E+03  0.2020E+03
      0.425  0.1064E+03  0.3694E+02  0.3238E+03  0.2110E+03
      0.667  0.5280E+02  0.3613E+02  0.3365E+03  0.2197E+03
      0.909  0.4700E+02  0.5695E+02  0.3479E+03  0.2335E+03
      1.150  0.5327E+02  0.5632E+02  0.3608E+03  0.2471E+03
      1.392  0.6400E+02  0.1989E+02  0.3762E+03  0.2519E+03
      1.634  0.5419E+02  0.2494E+02  0.3893E+03  0.2579E+03
      1.875  0.5831E+02  0.4741E+02  0.4034E+03  0.2694E+03
      2.117  0.4864E+02  0.3582E+02  0.4152E+03  0.2780E+03
      2.359  0.2777E+02  0.3005E+02  0.4219E+03  0.2853E+03
      2.600  0.3494E+02  0.3330E+02  0.4303E+03  0.2933E+03
      2.842  0.3404E+02  0.4476E+02  0.4385E+03  0.3041E+03
      3.084  0.3653E+02  0.3819E+02  0.4474E+03  0.3134E+03
      3.325  0.3370E+02  0.5917E+02  0.4555E+03  0.3277E+03
      3.567  0.2561E+02  0.2868E+02  0.4617E+03  0.3346E+03
      3.809  0.4112E+02  0.9235E+01  0.4716E+03  0.3368E+03
      4.050  0.4607E+02  0.1065E+02  0.4828E+03  0.3394E+03
      4.292  0.3581E+02  0.4094E+02  0.4914E+03  0.3493E+03
      4.534  0.3611E+02  0.2244E+02  0.5002E+03  0.3547E+03
      4.775  0.1587E+02  0.2020E+02  0.5040E+03  0.3596E+03
      5.017  0.1513E-01  0.1666E+01  0.5040E+03  0.3600E+03
      5.258  0.0000E+00  0.2558E-04  0.5040E+03  0.3600E+03
      5.500  0.0000E+00  0.0000E+00  0.5040E+03  0.3600E+03
      5.742  0.0000E+00  0.0000E+00  0.5040E+03  0.3600E+03
      5.983  0.0000E+00  0.1560E-07  0.5040E+03  0.3600E+03
      6.225  0.0000E+00  0.3098E+00  0.5040E+03  0.3601E+03
      6.467  0.0000E+00  0.3629E+01  0.5040E+03  0.3610E+03
      6.708  0.4066E-02  0.9652E+01  0.5040E+03  0.3633E+03
      6.950  0.1492E+00  0.3242E+02  0.5040E+03  0.3711E+03
      7.192  0.3097E+00  0.7751E+02  0.5041E+03  0.3898E+03
      7.433  0.7652E+00  0.6523E+02  0.5043E+03  0.4056E+03
      7.675  0.2514E+01  0.5170E+02  0.5049E+03  0.4181E+03
      7.917  0.2187E+01  0.8523E+02  0.5054E+03  0.4387E+03
      8.158  0.2115E+01  0.7859E+02  0.5059E+03  0.4577E+03
      8.400  0.5339E+01  0.5284E+02  0.5072E+03  0.4705E+03
      8.642  0.7873E+01  0.7274E+02  0.5091E+03  0.4880E+03
      8.883  0.1643E+02  0.4531E+02  0.5131E+03  0.4990E+03
      9.125  0.1352E+02  0.2232E+02  0.5164E+03  0.5044E+03
      9.367  0.1852E+02  0.4873E+01  0.5209E+03  0.5056E+03
      9.608  0.1989E+02  0.6571E+01  0.5257E+03  0.5072E+03
      9.850  0.1783E+02  0.1157E+02  0.5300E+03  0.5099E+03
     10.092  0.1797E+02  0.1438E+02  0.5343E+03  0.5134E+03
     10.333  0.1979E+02  0.1810E+02  0.5391E+03  0.5178E+03
     10.575  0.2427E+02  0.3197E+02  0.5450E+03  0.5255E+03
     10.817  0.2127E+02  0.2819E+02  0.5501E+03  0.5323E+03
     11.058  0.2849E+02  0.2199E+02  0.5570E+03  0.5376E+03
     11.300  0.2883E+02  0.2480E+02  0.5639E+03  0.5436E+03
     11.542  0.2217E+02  0.2209E+02  0.5693E+03  0.5490E+03
     11.783  0.2721E+02  0.2152E+02  0.5759E+03  0.5542E+03
     12.025  0.3938E+02  0.1860E+02  0.5854E+03  0.5587E+03
     12.267  0.3441E+02  0.3056E+02  0.5937E+03  0.5661E+03
     12.508  0.2811E+02  0.4277E+02  0.6005E+03  0.5764E+03
     12.750  0.2532E+02  0.3532E+02  0.6066E+03  0.5849E+03
     12.992  0.2863E+02  0.2849E+02  0.6135E+03  0.5918E+03
     13.233  0.2538E+02  0.2740E+02  0.6197E+03  0.5984E+03
     13.475  0.2165E+02  0.3664E+02  0.6249E+03  0.6073E+03
     13.717  0.1795E+02  0.2946E+02  0.6292E+03  0.6144E+03
     13.958  0.2941E+01  0.2309E+02  0.6300E+03  0.6200E+03
     14.200  0.1806E+00  0.2360E+02  0.6300E+03  0.6257E+03
     14.441  0.0000E+00  0.1641E+02  0.6300E+03  0.6297E+03
     14.683  0.0000E+00  0.1412E+01  0.6300E+03  0.6300E+03
     14.925  0.0000E+00  0.2090E-05  0.6300E+03  0.6300E+03
     15.166  0.0000E+00  0.0000E+00  0.6300E+03  0.6300E+03
     15.408  0.0000E+00  0.0000E+00  0.6300E+03  0.6300E+03
     15.650  0.0000E+00  0.0000E+00  0.6300E+03  0.6300E+03
     15.891  0.0000E+00  0.0000E+00  0.6300E+03  0.6300E+03
     16.133  0.0000E+00  0.0000E+00  0.6300E+03  0.6300E+03
     16.375  0.0000E+00  0.0000E+00  0.6300E+03  0.6300E+03
     16.616  0.0000E+00  0.0000E+00  0.6300E+03  0.6300E+03
     16.858  0.0000E+00  0.0000E+00  0.6300E+03  0.6300E+03
     17.100  0.0000E+00  0.0000E+00  0.6300E+03  0.6300E+03
     17.341  0.0000E+00  0.0000E+00  0.6300E+03  0.6300E+03
     17.583  0.0000E+00  0.0000E+00  0.6300E+03  0.6300E+03
     17.825  0.0000E+00  0.0000E+00  0.6300E+03  0.6300E+03
