 160 160   0   0
  0.1218736E+02  0.1542482E-08  0.1121024E-08  0.1127703E-08  0.5000000E-15
  1.000000000000000E-004
  CAR 
 unknown system                          
     16.86396524    -54.74633518  301      4.95875279      1.00000000
    -54.746  0.0000E+00  0.0000E+00  0.0000E+00  0.0000E+00
    -54.508  0.0000E+00  0.0000E+00  0.0000E+00  0.0000E+00
    -54.269  0.0000E+00  0.0000E+00  0.0000E+00  0.0000E+00
    -54.030  0.0000E+00  0.0000E+00  0.0000E+00  0.0000E+00
    -53.792  0.0000E+00  0.0000E+00  0.0000E+00  0.0000E+00
    -53.553  0.0000E+00  0.0000E+00  0.0000E+00  0.0000E+00
    -53.314  0.0000E+00  0.0000E+00  0.0000E+00  0.0000E+00
    -53.075  0.0000E+00  0.0000E+00  0.0000E+00  0.0000E+00
    -52.837  0.0000E+00  0.0000E+00  0.0000E+00  0.0000E+00
    -52.598  0.0000E+00  0.0000E+00  0.0000E+00  0.0000E+00
    -52.359  0.0000E+00  0.0000E+00  0.0000E+00  0.0000E+00
    -52.121  0.0000E+00  0.0000E+00  0.0000E+00  0.0000E+00
    -51.882  0.0000E+00  0.0000E+00  0.0000E+00  0.0000E+00
    -51.643  0.5969E-03  0.0000E+00  0.1425E-03  0.0000E+00
    -51.405  0.1326E+03  0.0000E+00  0.3166E+02  0.0000E+00
    -51.166  0.1436E+01  0.0000E+00  0.3200E+02  0.0000E+00
    -50.927  0.0000E+00  0.0000E+00  0.3200E+02  0.0000E+00
    -50.688  0.0000E+00  0.0000E+00  0.3200E+02  0.0000E+00
    -50.450  0.0000E+00  0.0000E+00  0.3200E+02  0.0000E+00
    -50.211  0.6870E-01  0.0000E+00  0.3202E+02  0.0000E+00
    -49.972  0.2657E+03  0.0000E+00  0.9543E+02  0.0000E+00
    -49.734  0.2379E+01  0.0000E+00  0.9600E+02  0.0000E+00
    -49.495  0.0000E+00  0.0000E+00  0.9600E+02  0.0000E+00
    -49.256  0.0000E+00  0.0000E+00  0.9600E+02  0.0000E+00
    -49.018  0.0000E+00  0.0000E+00  0.9600E+02  0.0000E+00
    -48.779  0.0000E+00  0.0000E+00  0.9600E+02  0.0000E+00
    -48.540  0.0000E+00  0.0000E+00  0.9600E+02  0.0000E+00
    -48.301  0.0000E+00  0.0000E+00  0.9600E+02  0.0000E+00
    -48.063  0.0000E+00  0.0000E+00  0.9600E+02  0.0000E+00
    -47.824  0.0000E+00  0.0000E+00  0.9600E+02  0.0000E+00
    -47.585  0.0000E+00  0.0000E+00  0.9600E+02  0.0000E+00
    -47.347  0.0000E+00  0.0000E+00  0.9600E+02  0.0000E+00
    -47.108  0.0000E+00  0.0000E+00  0.9600E+02  0.0000E+00
    -46.869  0.0000E+00  0.2173E-01  0.9600E+02  0.5186E-02
    -46.631  0.0000E+00  0.1339E+03  0.9600E+02  0.3197E+02
    -46.392  0.0000E+00  0.5408E+02  0.9600E+02  0.4488E+02
    -46.153  0.0000E+00  0.2142E+03  0.9600E+02  0.9600E+02
    -45.914  0.0000E+00  0.0000E+00  0.9600E+02  0.9600E+02
    -45.676  0.0000E+00  0.0000E+00  0.9600E+02  0.9600E+02
    -45.437  0.0000E+00  0.0000E+00  0.9600E+02  0.9600E+02
    -45.198  0.0000E+00  0.0000E+00  0.9600E+02  0.9600E+02
    -44.960  0.0000E+00  0.0000E+00  0.9600E+02  0.9600E+02
    -44.721  0.0000E+00  0.0000E+00  0.9600E+02  0.9600E+02
    -44.482  0.0000E+00  0.0000E+00  0.9600E+02  0.9600E+02
    -44.243  0.0000E+00  0.0000E+00  0.9600E+02  0.9600E+02
    -44.005  0.0000E+00  0.0000E+00  0.9600E+02  0.9600E+02
    -43.766  0.0000E+00  0.0000E+00  0.9600E+02  0.9600E+02
    -43.527  0.0000E+00  0.0000E+00  0.9600E+02  0.9600E+02
    -43.289  0.0000E+00  0.0000E+00  0.9600E+02  0.9600E+02
    -43.050  0.0000E+00  0.0000E+00  0.9600E+02  0.9600E+02
    -42.811  0.0000E+00  0.0000E+00  0.9600E+02  0.9600E+02
    -42.573  0.0000E+00  0.0000E+00  0.9600E+02  0.9600E+02
    -42.334  0.0000E+00  0.0000E+00  0.9600E+02  0.9600E+02
    -42.095  0.0000E+00  0.0000E+00  0.9600E+02  0.9600E+02
    -41.856  0.0000E+00  0.0000E+00  0.9600E+02  0.9600E+02
    -41.618  0.0000E+00  0.0000E+00  0.9600E+02  0.9600E+02
    -41.379  0.0000E+00  0.0000E+00  0.9600E+02  0.9600E+02
    -41.140  0.0000E+00  0.0000E+00  0.9600E+02  0.9600E+02
    -40.902  0.0000E+00  0.0000E+00  0.9600E+02  0.9600E+02
    -40.663  0.0000E+00  0.0000E+00  0.9600E+02  0.9600E+02
    -40.424  0.6753E+00  0.5997E+00  0.9616E+02  0.9614E+02
    -40.186  0.2437E+03  0.2457E+03  0.1543E+03  0.1548E+03
    -39.947  0.2370E+02  0.2185E+02  0.1600E+03  0.1600E+03
    -39.708  0.0000E+00  0.0000E+00  0.1600E+03  0.1600E+03
    -39.469  0.0000E+00  0.0000E+00  0.1600E+03  0.1600E+03
    -39.231  0.0000E+00  0.0000E+00  0.1600E+03  0.1600E+03
    -38.992  0.0000E+00  0.0000E+00  0.1600E+03  0.1600E+03
    -38.753  0.0000E+00  0.0000E+00  0.1600E+03  0.1600E+03
    -38.515  0.0000E+00  0.0000E+00  0.1600E+03  0.1600E+03
    -38.276  0.0000E+00  0.0000E+00  0.1600E+03  0.1600E+03
    -38.037  0.0000E+00  0.0000E+00  0.1600E+03  0.1600E+03
    -37.799  0.0000E+00  0.0000E+00  0.1600E+03  0.1600E+03
    -37.560  0.0000E+00  0.0000E+00  0.1600E+03  0.1600E+03
    -37.321  0.0000E+00  0.0000E+00  0.1600E+03  0.1600E+03
    -37.082  0.0000E+00  0.0000E+00  0.1600E+03  0.1600E+03
    -36.844  0.0000E+00  0.0000E+00  0.1600E+03  0.1600E+03
    -36.605  0.0000E+00  0.0000E+00  0.1600E+03  0.1600E+03
    -36.366  0.0000E+00  0.0000E+00  0.1600E+03  0.1600E+03
    -36.128  0.0000E+00  0.0000E+00  0.1600E+03  0.1600E+03
    -35.889  0.0000E+00  0.0000E+00  0.1600E+03  0.1600E+03
    -35.650  0.0000E+00  0.0000E+00  0.1600E+03  0.1600E+03
    -35.412  0.0000E+00  0.0000E+00  0.1600E+03  0.1600E+03
    -35.173  0.0000E+00  0.0000E+00  0.1600E+03  0.1600E+03
    -34.934  0.0000E+00  0.0000E+00  0.1600E+03  0.1600E+03
    -34.695  0.0000E+00  0.0000E+00  0.1600E+03  0.1600E+03
    -34.457  0.0000E+00  0.0000E+00  0.1600E+03  0.1600E+03
    -34.218  0.0000E+00  0.0000E+00  0.1600E+03  0.1600E+03
    -33.979  0.0000E+00  0.0000E+00  0.1600E+03  0.1600E+03
    -33.741  0.0000E+00  0.0000E+00  0.1600E+03  0.1600E+03
    -33.502  0.0000E+00  0.0000E+00  0.1600E+03  0.1600E+03
    -33.263  0.0000E+00  0.0000E+00  0.1600E+03  0.1600E+03
    -33.025  0.0000E+00  0.0000E+00  0.1600E+03  0.1600E+03
    -32.786  0.0000E+00  0.0000E+00  0.1600E+03  0.1600E+03
    -32.547  0.0000E+00  0.0000E+00  0.1600E+03  0.1600E+03
    -32.308  0.0000E+00  0.0000E+00  0.1600E+03  0.1600E+03
    -32.070  0.0000E+00  0.0000E+00  0.1600E+03  0.1600E+03
    -31.831  0.0000E+00  0.0000E+00  0.1600E+03  0.1600E+03
    -31.592  0.0000E+00  0.0000E+00  0.1600E+03  0.1600E+03
    -31.354  0.0000E+00  0.0000E+00  0.1600E+03  0.1600E+03
    -31.115  0.0000E+00  0.0000E+00  0.1600E+03  0.1600E+03
    -30.876  0.0000E+00  0.0000E+00  0.1600E+03  0.1600E+03
    -30.638  0.0000E+00  0.0000E+00  0.1600E+03  0.1600E+03
    -30.399  0.0000E+00  0.0000E+00  0.1600E+03  0.1600E+03
    -30.160  0.0000E+00  0.0000E+00  0.1600E+03  0.1600E+03
    -29.921  0.0000E+00  0.0000E+00  0.1600E+03  0.1600E+03
    -29.683  0.0000E+00  0.0000E+00  0.1600E+03  0.1600E+03
    -29.444  0.0000E+00  0.0000E+00  0.1600E+03  0.1600E+03
    -29.205  0.0000E+00  0.0000E+00  0.1600E+03  0.1600E+03
    -28.967  0.0000E+00  0.0000E+00  0.1600E+03  0.1600E+03
    -28.728  0.0000E+00  0.0000E+00  0.1600E+03  0.1600E+03
    -28.489  0.0000E+00  0.0000E+00  0.1600E+03  0.1600E+03
    -28.251  0.0000E+00  0.0000E+00  0.1600E+03  0.1600E+03
    -28.012  0.0000E+00  0.0000E+00  0.1600E+03  0.1600E+03
    -27.773  0.0000E+00  0.0000E+00  0.1600E+03  0.1600E+03
    -27.534  0.0000E+00  0.0000E+00  0.1600E+03  0.1600E+03
    -27.296  0.0000E+00  0.0000E+00  0.1600E+03  0.1600E+03
    -27.057  0.0000E+00  0.0000E+00  0.1600E+03  0.1600E+03
    -26.818  0.0000E+00  0.0000E+00  0.1600E+03  0.1600E+03
    -26.580  0.0000E+00  0.0000E+00  0.1600E+03  0.1600E+03
    -26.341  0.0000E+00  0.0000E+00  0.1600E+03  0.1600E+03
    -26.102  0.0000E+00  0.0000E+00  0.1600E+03  0.1600E+03
    -25.864  0.0000E+00  0.0000E+00  0.1600E+03  0.1600E+03
    -25.625  0.0000E+00  0.0000E+00  0.1600E+03  0.1600E+03
    -25.386  0.0000E+00  0.0000E+00  0.1600E+03  0.1600E+03
    -25.147  0.0000E+00  0.0000E+00  0.1600E+03  0.1600E+03
    -24.909  0.0000E+00  0.0000E+00  0.1600E+03  0.1600E+03
    -24.670  0.0000E+00  0.0000E+00  0.1600E+03  0.1600E+03
    -24.431  0.0000E+00  0.0000E+00  0.1600E+03  0.1600E+03
    -24.193  0.0000E+00  0.0000E+00  0.1600E+03  0.1600E+03
    -23.954  0.0000E+00  0.0000E+00  0.1600E+03  0.1600E+03
    -23.715  0.0000E+00  0.0000E+00  0.1600E+03  0.1600E+03
    -23.477  0.0000E+00  0.0000E+00  0.1600E+03  0.1600E+03
    -23.238  0.0000E+00  0.0000E+00  0.1600E+03  0.1600E+03
    -22.999  0.0000E+00  0.0000E+00  0.1600E+03  0.1600E+03
    -22.760  0.0000E+00  0.0000E+00  0.1600E+03  0.1600E+03
    -22.522  0.0000E+00  0.0000E+00  0.1600E+03  0.1600E+03
    -22.283  0.0000E+00  0.0000E+00  0.1600E+03  0.1600E+03
    -22.044  0.0000E+00  0.0000E+00  0.1600E+03  0.1600E+03
    -21.806  0.0000E+00  0.0000E+00  0.1600E+03  0.1600E+03
    -21.567  0.0000E+00  0.0000E+00  0.1600E+03  0.1600E+03
    -21.328  0.0000E+00  0.0000E+00  0.1600E+03  0.1600E+03
    -21.089  0.0000E+00  0.0000E+00  0.1600E+03  0.1600E+03
    -20.851  0.0000E+00  0.0000E+00  0.1600E+03  0.1600E+03
    -20.612  0.0000E+00  0.0000E+00  0.1600E+03  0.1600E+03
    -20.373  0.0000E+00  0.0000E+00  0.1600E+03  0.1600E+03
    -20.135  0.0000E+00  0.0000E+00  0.1600E+03  0.1600E+03
    -19.896  0.0000E+00  0.0000E+00  0.1600E+03  0.1600E+03
    -19.657  0.0000E+00  0.0000E+00  0.1600E+03  0.1600E+03
    -19.419  0.0000E+00  0.0000E+00  0.1600E+03  0.1600E+03
    -19.180  0.0000E+00  0.0000E+00  0.1600E+03  0.1600E+03
    -18.941  0.0000E+00  0.0000E+00  0.1600E+03  0.1600E+03
    -18.702  0.0000E+00  0.0000E+00  0.1600E+03  0.1600E+03
    -18.464  0.0000E+00  0.0000E+00  0.1600E+03  0.1600E+03
    -18.225  0.0000E+00  0.0000E+00  0.1600E+03  0.1600E+03
    -17.986  0.0000E+00  0.0000E+00  0.1600E+03  0.1600E+03
    -17.748  0.0000E+00  0.0000E+00  0.1600E+03  0.1600E+03
    -17.509  0.0000E+00  0.0000E+00  0.1600E+03  0.1600E+03
    -17.270  0.0000E+00  0.0000E+00  0.1600E+03  0.1600E+03
    -17.032  0.0000E+00  0.0000E+00  0.1600E+03  0.1600E+03
    -16.793  0.0000E+00  0.0000E+00  0.1600E+03  0.1600E+03
    -16.554  0.0000E+00  0.0000E+00  0.1600E+03  0.1600E+03
    -16.315  0.0000E+00  0.0000E+00  0.1600E+03  0.1600E+03
    -16.077  0.0000E+00  0.0000E+00  0.1600E+03  0.1600E+03
    -15.838  0.0000E+00  0.0000E+00  0.1600E+03  0.1600E+03
    -15.599  0.0000E+00  0.0000E+00  0.1600E+03  0.1600E+03
    -15.361  0.0000E+00  0.0000E+00  0.1600E+03  0.1600E+03
    -15.122  0.0000E+00  0.0000E+00  0.1600E+03  0.1600E+03
    -14.883  0.0000E+00  0.0000E+00  0.1600E+03  0.1600E+03
    -14.645  0.0000E+00  0.0000E+00  0.1600E+03  0.1600E+03
    -14.406  0.0000E+00  0.0000E+00  0.1600E+03  0.1600E+03
    -14.167  0.0000E+00  0.0000E+00  0.1600E+03  0.1600E+03
    -13.928  0.0000E+00  0.0000E+00  0.1600E+03  0.1600E+03
    -13.690  0.3040E-05  0.0000E+00  0.1600E+03  0.1600E+03
    -13.451  0.3499E+02  0.1546E-11  0.1684E+03  0.1600E+03
    -13.212  0.7585E+02  0.5839E+01  0.1865E+03  0.1614E+03
    -12.974  0.2322E+02  0.1089E+03  0.1920E+03  0.1874E+03
    -12.735  0.0000E+00  0.1933E+02  0.1920E+03  0.1920E+03
    -12.496  0.0000E+00  0.0000E+00  0.1920E+03  0.1920E+03
    -12.258  0.0000E+00  0.0000E+00  0.1920E+03  0.1920E+03
    -12.019  0.0000E+00  0.0000E+00  0.1920E+03  0.1920E+03
    -11.780  0.0000E+00  0.0000E+00  0.1920E+03  0.1920E+03
    -11.541  0.0000E+00  0.0000E+00  0.1920E+03  0.1920E+03
    -11.303  0.0000E+00  0.0000E+00  0.1920E+03  0.1920E+03
    -11.064  0.0000E+00  0.0000E+00  0.1920E+03  0.1920E+03
    -10.825  0.0000E+00  0.0000E+00  0.1920E+03  0.1920E+03
    -10.587  0.0000E+00  0.0000E+00  0.1920E+03  0.1920E+03
    -10.348  0.0000E+00  0.0000E+00  0.1920E+03  0.1920E+03
    -10.109  0.0000E+00  0.0000E+00  0.1920E+03  0.1920E+03
     -9.871  0.0000E+00  0.0000E+00  0.1920E+03  0.1920E+03
     -9.632  0.0000E+00  0.0000E+00  0.1920E+03  0.1920E+03
     -9.393  0.0000E+00  0.0000E+00  0.1920E+03  0.1920E+03
     -9.154  0.0000E+00  0.0000E+00  0.1920E+03  0.1920E+03
     -8.916  0.0000E+00  0.0000E+00  0.1920E+03  0.1920E+03
     -8.677  0.0000E+00  0.0000E+00  0.1920E+03  0.1920E+03
     -8.438  0.0000E+00  0.0000E+00  0.1920E+03  0.1920E+03
     -8.200  0.0000E+00  0.0000E+00  0.1920E+03  0.1920E+03
     -7.961  0.0000E+00  0.0000E+00  0.1920E+03  0.1920E+03
     -7.722  0.5609E-02  0.2196E-15  0.1920E+03  0.1920E+03
     -7.484  0.2331E+02  0.1375E+00  0.1976E+03  0.1920E+03
     -7.245  0.6252E+02  0.4205E+02  0.2125E+03  0.2021E+03
     -7.006  0.4657E+02  0.6357E+02  0.2236E+03  0.2172E+03
     -6.767  0.1654E+01  0.2749E+02  0.2240E+03  0.2238E+03
     -6.529  0.0000E+00  0.8196E+00  0.2240E+03  0.2240E+03
     -6.290  0.0000E+00  0.0000E+00  0.2240E+03  0.2240E+03
     -6.051  0.0000E+00  0.0000E+00  0.2240E+03  0.2240E+03
     -5.813  0.0000E+00  0.0000E+00  0.2240E+03  0.2240E+03
     -5.574  0.0000E+00  0.0000E+00  0.2240E+03  0.2240E+03
     -5.335  0.0000E+00  0.0000E+00  0.2240E+03  0.2240E+03
     -5.097  0.0000E+00  0.0000E+00  0.2240E+03  0.2240E+03
     -4.858  0.0000E+00  0.0000E+00  0.2240E+03  0.2240E+03
     -4.619  0.0000E+00  0.0000E+00  0.2240E+03  0.2240E+03
     -4.380  0.0000E+00  0.0000E+00  0.2240E+03  0.2240E+03
     -4.142  0.0000E+00  0.0000E+00  0.2240E+03  0.2240E+03
     -3.903  0.0000E+00  0.0000E+00  0.2240E+03  0.2240E+03
     -3.664  0.0000E+00  0.0000E+00  0.2240E+03  0.2240E+03
     -3.426  0.0000E+00  0.0000E+00  0.2240E+03  0.2240E+03
     -3.187  0.0000E+00  0.0000E+00  0.2240E+03  0.2240E+03
     -2.948  0.0000E+00  0.0000E+00  0.2240E+03  0.2240E+03
     -2.710  0.4460E-04  0.0000E+00  0.2240E+03  0.2240E+03
     -2.471  0.1578E+02  0.0000E+00  0.2278E+03  0.2240E+03
     -2.232  0.1780E+02  0.0000E+00  0.2320E+03  0.2240E+03
     -1.993  0.2228E+02  0.0000E+00  0.2373E+03  0.2240E+03
     -1.755  0.1657E+00  0.0000E+00  0.2374E+03  0.2240E+03
     -1.516  0.2218E+02  0.0000E+00  0.2427E+03  0.2240E+03
     -1.277  0.3057E+02  0.2455E-14  0.2500E+03  0.2240E+03
     -1.039  0.7757E+02  0.1030E+00  0.2685E+03  0.2240E+03
     -0.800  0.7196E+02  0.2189E+02  0.2857E+03  0.2292E+03
     -0.561  0.7051E+02  0.2754E+02  0.3025E+03  0.2358E+03
     -0.323  0.9528E+02  0.1579E+02  0.3252E+03  0.2396E+03
     -0.084  0.1029E+03  0.1415E+02  0.3498E+03  0.2430E+03
      0.155  0.5435E+02  0.2673E+02  0.3628E+03  0.2494E+03
      0.394  0.4755E+02  0.5254E+02  0.3741E+03  0.2619E+03
      0.632  0.5240E+02  0.7807E+02  0.3866E+03  0.2805E+03
      0.871  0.4329E+02  0.7177E+02  0.3970E+03  0.2977E+03
      1.110  0.6338E+02  0.7670E+02  0.4121E+03  0.3160E+03
      1.348  0.8366E+02  0.2854E+02  0.4321E+03  0.3228E+03
      1.587  0.7987E+02  0.3811E+02  0.4511E+03  0.3319E+03
      1.826  0.4141E+02  0.4985E+02  0.4610E+03  0.3438E+03
      2.065  0.3995E+02  0.4295E+02  0.4705E+03  0.3540E+03
      2.303  0.4858E+02  0.2869E+02  0.4821E+03  0.3609E+03
      2.542  0.4352E+02  0.5101E+02  0.4925E+03  0.3731E+03
      2.781  0.5578E+02  0.6846E+02  0.5058E+03  0.3894E+03
      3.019  0.5565E+02  0.8186E+02  0.5191E+03  0.4089E+03
      3.258  0.5438E+02  0.2821E+02  0.5321E+03  0.4157E+03
      3.497  0.4570E+02  0.2248E+02  0.5430E+03  0.4210E+03
      3.735  0.5640E+02  0.4802E+02  0.5565E+03  0.4325E+03
      3.974  0.3720E+02  0.5509E+02  0.5654E+03  0.4456E+03
      4.213  0.2663E+02  0.9861E+01  0.5717E+03  0.4480E+03
      4.452  0.1599E+02  0.3253E-03  0.5755E+03  0.4480E+03
      4.690  0.1959E+01  0.0000E+00  0.5760E+03  0.4480E+03
      4.929  0.7241E-04  0.0000E+00  0.5760E+03  0.4480E+03
      5.168  0.0000E+00  0.0000E+00  0.5760E+03  0.4480E+03
      5.406  0.0000E+00  0.0000E+00  0.5760E+03  0.4480E+03
      5.645  0.0000E+00  0.0000E+00  0.5760E+03  0.4480E+03
      5.884  0.0000E+00  0.0000E+00  0.5760E+03  0.4480E+03
      6.122  0.0000E+00  0.0000E+00  0.5760E+03  0.4480E+03
      6.361  0.0000E+00  0.1696E-10  0.5760E+03  0.4480E+03
      6.600  0.0000E+00  0.1672E+01  0.5760E+03  0.4484E+03
      6.839  0.1628E-14  0.5491E+02  0.5760E+03  0.4615E+03
      7.077  0.4012E-01  0.7685E+02  0.5760E+03  0.4798E+03
      7.316  0.1926E+00  0.5749E+02  0.5761E+03  0.4936E+03
      7.555  0.9801E+00  0.6918E+02  0.5763E+03  0.5101E+03
      7.793  0.1502E+01  0.6443E+02  0.5766E+03  0.5255E+03
      8.032  0.3186E+01  0.9717E+02  0.5774E+03  0.5487E+03
      8.271  0.8626E+01  0.6945E+02  0.5795E+03  0.5652E+03
      8.509  0.1106E+02  0.3490E+02  0.5821E+03  0.5736E+03
      8.748  0.2248E+02  0.1236E+02  0.5875E+03  0.5765E+03
      8.987  0.2763E+02  0.8442E+01  0.5941E+03  0.5785E+03
      9.226  0.2838E+02  0.1161E+02  0.6008E+03  0.5813E+03
      9.464  0.3249E+02  0.2104E+02  0.6086E+03  0.5863E+03
      9.703  0.2915E+02  0.2563E+02  0.6156E+03  0.5925E+03
      9.942  0.2067E+02  0.4183E+02  0.6205E+03  0.6024E+03
     10.180  0.2181E+02  0.3257E+02  0.6257E+03  0.6102E+03
     10.419  0.2599E+02  0.3401E+02  0.6319E+03  0.6183E+03
     10.658  0.4092E+02  0.3241E+02  0.6417E+03  0.6261E+03
     10.896  0.3947E+02  0.2385E+02  0.6511E+03  0.6318E+03
     11.135  0.4490E+02  0.3395E+02  0.6618E+03  0.6399E+03
     11.374  0.4015E+02  0.2268E+02  0.6714E+03  0.6453E+03
     11.613  0.3884E+02  0.3663E+02  0.6807E+03  0.6540E+03
     11.851  0.4719E+02  0.5244E+02  0.6919E+03  0.6665E+03
     12.090  0.3011E+02  0.5852E+02  0.6991E+03  0.6805E+03
     12.329  0.2898E+02  0.4486E+02  0.7060E+03  0.6912E+03
     12.567  0.3352E+02  0.3099E+02  0.7140E+03  0.6986E+03
     12.806  0.4135E+02  0.3274E+02  0.7239E+03  0.7064E+03
     13.045  0.1917E+02  0.3545E+02  0.7285E+03  0.7149E+03
     13.283  0.1453E+02  0.3599E+02  0.7319E+03  0.7235E+03
     13.522  0.2098E+00  0.2880E+02  0.7320E+03  0.7304E+03
     13.761  0.0000E+00  0.6902E+01  0.7320E+03  0.7320E+03
     14.000  0.0000E+00  0.4040E-05  0.7320E+03  0.7320E+03
     14.238  0.0000E+00  0.0000E+00  0.7320E+03  0.7320E+03
     14.477  0.0000E+00  0.0000E+00  0.7320E+03  0.7320E+03
     14.716  0.0000E+00  0.0000E+00  0.7320E+03  0.7320E+03
     14.954  0.0000E+00  0.0000E+00  0.7320E+03  0.7320E+03
     15.193  0.0000E+00  0.0000E+00  0.7320E+03  0.7320E+03
     15.432  0.0000E+00  0.0000E+00  0.7320E+03  0.7320E+03
     15.670  0.0000E+00  0.0000E+00  0.7320E+03  0.7320E+03
     15.909  0.0000E+00  0.0000E+00  0.7320E+03  0.7320E+03
     16.148  0.0000E+00  0.0000E+00  0.7320E+03  0.7320E+03
     16.387  0.0000E+00  0.0000E+00  0.7320E+03  0.7320E+03
     16.625  0.0000E+00  0.0000E+00  0.7320E+03  0.7320E+03
     16.864  0.0000E+00  0.0000E+00  0.7320E+03  0.7320E+03
