 120 120   0   0
  0.1228332E+02  0.1173587E-08  0.1121847E-08  0.1119562E-08  0.5000000E-15
  1.000000000000000E-004
  CAR 
 unknown system                          
     16.73653369    -54.73393774  301      4.40787737      1.00000000
    -54.734  0.0000E+00  0.0000E+00  0.0000E+00  0.0000E+00
    -54.496  0.0000E+00  0.0000E+00  0.0000E+00  0.0000E+00
    -54.257  0.0000E+00  0.0000E+00  0.0000E+00  0.0000E+00
    -54.019  0.0000E+00  0.0000E+00  0.0000E+00  0.0000E+00
    -53.781  0.0000E+00  0.0000E+00  0.0000E+00  0.0000E+00
    -53.543  0.0000E+00  0.0000E+00  0.0000E+00  0.0000E+00
    -53.305  0.0000E+00  0.0000E+00  0.0000E+00  0.0000E+00
    -53.066  0.0000E+00  0.0000E+00  0.0000E+00  0.0000E+00
    -52.828  0.0000E+00  0.0000E+00  0.0000E+00  0.0000E+00
    -52.590  0.0000E+00  0.0000E+00  0.0000E+00  0.0000E+00
    -52.352  0.0000E+00  0.0000E+00  0.0000E+00  0.0000E+00
    -52.113  0.0000E+00  0.0000E+00  0.0000E+00  0.0000E+00
    -51.875  0.0000E+00  0.0000E+00  0.0000E+00  0.0000E+00
    -51.637  0.1927E-03  0.0000E+00  0.4591E-04  0.0000E+00
    -51.399  0.9723E+02  0.0000E+00  0.2316E+02  0.0000E+00
    -51.160  0.3515E+01  0.0000E+00  0.2400E+02  0.0000E+00
    -50.922  0.0000E+00  0.0000E+00  0.2400E+02  0.0000E+00
    -50.684  0.0000E+00  0.0000E+00  0.2400E+02  0.0000E+00
    -50.446  0.1832E-09  0.0000E+00  0.2400E+02  0.0000E+00
    -50.207  0.4029E+02  0.0000E+00  0.3360E+02  0.0000E+00
    -49.969  0.1324E+03  0.0000E+00  0.6514E+02  0.0000E+00
    -49.731  0.2881E+02  0.0000E+00  0.7200E+02  0.0000E+00
    -49.493  0.0000E+00  0.0000E+00  0.7200E+02  0.0000E+00
    -49.255  0.0000E+00  0.0000E+00  0.7200E+02  0.0000E+00
    -49.016  0.0000E+00  0.0000E+00  0.7200E+02  0.0000E+00
    -48.778  0.0000E+00  0.0000E+00  0.7200E+02  0.0000E+00
    -48.540  0.0000E+00  0.0000E+00  0.7200E+02  0.0000E+00
    -48.302  0.0000E+00  0.0000E+00  0.7200E+02  0.0000E+00
    -48.063  0.0000E+00  0.0000E+00  0.7200E+02  0.0000E+00
    -47.825  0.0000E+00  0.0000E+00  0.7200E+02  0.0000E+00
    -47.587  0.0000E+00  0.0000E+00  0.7200E+02  0.0000E+00
    -47.349  0.0000E+00  0.0000E+00  0.7200E+02  0.0000E+00
    -47.110  0.0000E+00  0.0000E+00  0.7200E+02  0.0000E+00
    -46.872  0.0000E+00  0.5238E-01  0.7200E+02  0.1248E-01
    -46.634  0.0000E+00  0.1006E+03  0.7200E+02  0.2397E+02
    -46.396  0.0000E+00  0.9279E+02  0.7200E+02  0.4607E+02
    -46.157  0.0000E+00  0.1088E+03  0.7200E+02  0.7200E+02
    -45.919  0.0000E+00  0.0000E+00  0.7200E+02  0.7200E+02
    -45.681  0.0000E+00  0.0000E+00  0.7200E+02  0.7200E+02
    -45.443  0.0000E+00  0.0000E+00  0.7200E+02  0.7200E+02
    -45.205  0.0000E+00  0.0000E+00  0.7200E+02  0.7200E+02
    -44.966  0.0000E+00  0.0000E+00  0.7200E+02  0.7200E+02
    -44.728  0.0000E+00  0.0000E+00  0.7200E+02  0.7200E+02
    -44.490  0.0000E+00  0.0000E+00  0.7200E+02  0.7200E+02
    -44.252  0.0000E+00  0.0000E+00  0.7200E+02  0.7200E+02
    -44.013  0.0000E+00  0.0000E+00  0.7200E+02  0.7200E+02
    -43.775  0.0000E+00  0.0000E+00  0.7200E+02  0.7200E+02
    -43.537  0.0000E+00  0.0000E+00  0.7200E+02  0.7200E+02
    -43.299  0.0000E+00  0.0000E+00  0.7200E+02  0.7200E+02
    -43.060  0.0000E+00  0.0000E+00  0.7200E+02  0.7200E+02
    -42.822  0.0000E+00  0.0000E+00  0.7200E+02  0.7200E+02
    -42.584  0.0000E+00  0.0000E+00  0.7200E+02  0.7200E+02
    -42.346  0.0000E+00  0.0000E+00  0.7200E+02  0.7200E+02
    -42.107  0.0000E+00  0.0000E+00  0.7200E+02  0.7200E+02
    -41.869  0.0000E+00  0.0000E+00  0.7200E+02  0.7200E+02
    -41.631  0.0000E+00  0.0000E+00  0.7200E+02  0.7200E+02
    -41.393  0.0000E+00  0.0000E+00  0.7200E+02  0.7200E+02
    -41.155  0.0000E+00  0.0000E+00  0.7200E+02  0.7200E+02
    -40.916  0.0000E+00  0.0000E+00  0.7200E+02  0.7200E+02
    -40.678  0.2660E-03  0.8231E-04  0.7200E+02  0.7200E+02
    -40.440  0.9867E+02  0.9714E+02  0.9551E+02  0.9514E+02
    -40.202  0.1026E+03  0.1042E+03  0.1200E+03  0.1200E+03
    -39.963  0.1730E+00  0.1763E+00  0.1200E+03  0.1200E+03
    -39.725  0.0000E+00  0.0000E+00  0.1200E+03  0.1200E+03
    -39.487  0.0000E+00  0.0000E+00  0.1200E+03  0.1200E+03
    -39.249  0.0000E+00  0.0000E+00  0.1200E+03  0.1200E+03
    -39.010  0.0000E+00  0.0000E+00  0.1200E+03  0.1200E+03
    -38.772  0.0000E+00  0.0000E+00  0.1200E+03  0.1200E+03
    -38.534  0.0000E+00  0.0000E+00  0.1200E+03  0.1200E+03
    -38.296  0.0000E+00  0.0000E+00  0.1200E+03  0.1200E+03
    -38.057  0.0000E+00  0.0000E+00  0.1200E+03  0.1200E+03
    -37.819  0.0000E+00  0.0000E+00  0.1200E+03  0.1200E+03
    -37.581  0.0000E+00  0.0000E+00  0.1200E+03  0.1200E+03
    -37.343  0.0000E+00  0.0000E+00  0.1200E+03  0.1200E+03
    -37.105  0.0000E+00  0.0000E+00  0.1200E+03  0.1200E+03
    -36.866  0.0000E+00  0.0000E+00  0.1200E+03  0.1200E+03
    -36.628  0.0000E+00  0.0000E+00  0.1200E+03  0.1200E+03
    -36.390  0.0000E+00  0.0000E+00  0.1200E+03  0.1200E+03
    -36.152  0.0000E+00  0.0000E+00  0.1200E+03  0.1200E+03
    -35.913  0.0000E+00  0.0000E+00  0.1200E+03  0.1200E+03
    -35.675  0.0000E+00  0.0000E+00  0.1200E+03  0.1200E+03
    -35.437  0.0000E+00  0.0000E+00  0.1200E+03  0.1200E+03
    -35.199  0.0000E+00  0.0000E+00  0.1200E+03  0.1200E+03
    -34.960  0.0000E+00  0.0000E+00  0.1200E+03  0.1200E+03
    -34.722  0.0000E+00  0.0000E+00  0.1200E+03  0.1200E+03
    -34.484  0.0000E+00  0.0000E+00  0.1200E+03  0.1200E+03
    -34.246  0.0000E+00  0.0000E+00  0.1200E+03  0.1200E+03
    -34.008  0.0000E+00  0.0000E+00  0.1200E+03  0.1200E+03
    -33.769  0.0000E+00  0.0000E+00  0.1200E+03  0.1200E+03
    -33.531  0.0000E+00  0.0000E+00  0.1200E+03  0.1200E+03
    -33.293  0.0000E+00  0.0000E+00  0.1200E+03  0.1200E+03
    -33.055  0.0000E+00  0.0000E+00  0.1200E+03  0.1200E+03
    -32.816  0.0000E+00  0.0000E+00  0.1200E+03  0.1200E+03
    -32.578  0.0000E+00  0.0000E+00  0.1200E+03  0.1200E+03
    -32.340  0.0000E+00  0.0000E+00  0.1200E+03  0.1200E+03
    -32.102  0.0000E+00  0.0000E+00  0.1200E+03  0.1200E+03
    -31.863  0.0000E+00  0.0000E+00  0.1200E+03  0.1200E+03
    -31.625  0.0000E+00  0.0000E+00  0.1200E+03  0.1200E+03
    -31.387  0.0000E+00  0.0000E+00  0.1200E+03  0.1200E+03
    -31.149  0.0000E+00  0.0000E+00  0.1200E+03  0.1200E+03
    -30.910  0.0000E+00  0.0000E+00  0.1200E+03  0.1200E+03
    -30.672  0.0000E+00  0.0000E+00  0.1200E+03  0.1200E+03
    -30.434  0.0000E+00  0.0000E+00  0.1200E+03  0.1200E+03
    -30.196  0.0000E+00  0.0000E+00  0.1200E+03  0.1200E+03
    -29.958  0.0000E+00  0.0000E+00  0.1200E+03  0.1200E+03
    -29.719  0.0000E+00  0.0000E+00  0.1200E+03  0.1200E+03
    -29.481  0.0000E+00  0.0000E+00  0.1200E+03  0.1200E+03
    -29.243  0.0000E+00  0.0000E+00  0.1200E+03  0.1200E+03
    -29.005  0.0000E+00  0.0000E+00  0.1200E+03  0.1200E+03
    -28.766  0.0000E+00  0.0000E+00  0.1200E+03  0.1200E+03
    -28.528  0.0000E+00  0.0000E+00  0.1200E+03  0.1200E+03
    -28.290  0.0000E+00  0.0000E+00  0.1200E+03  0.1200E+03
    -28.052  0.0000E+00  0.0000E+00  0.1200E+03  0.1200E+03
    -27.813  0.0000E+00  0.0000E+00  0.1200E+03  0.1200E+03
    -27.575  0.0000E+00  0.0000E+00  0.1200E+03  0.1200E+03
    -27.337  0.0000E+00  0.0000E+00  0.1200E+03  0.1200E+03
    -27.099  0.0000E+00  0.0000E+00  0.1200E+03  0.1200E+03
    -26.860  0.0000E+00  0.0000E+00  0.1200E+03  0.1200E+03
    -26.622  0.0000E+00  0.0000E+00  0.1200E+03  0.1200E+03
    -26.384  0.0000E+00  0.0000E+00  0.1200E+03  0.1200E+03
    -26.146  0.0000E+00  0.0000E+00  0.1200E+03  0.1200E+03
    -25.908  0.0000E+00  0.0000E+00  0.1200E+03  0.1200E+03
    -25.669  0.0000E+00  0.0000E+00  0.1200E+03  0.1200E+03
    -25.431  0.0000E+00  0.0000E+00  0.1200E+03  0.1200E+03
    -25.193  0.0000E+00  0.0000E+00  0.1200E+03  0.1200E+03
    -24.955  0.0000E+00  0.0000E+00  0.1200E+03  0.1200E+03
    -24.716  0.0000E+00  0.0000E+00  0.1200E+03  0.1200E+03
    -24.478  0.0000E+00  0.0000E+00  0.1200E+03  0.1200E+03
    -24.240  0.0000E+00  0.0000E+00  0.1200E+03  0.1200E+03
    -24.002  0.0000E+00  0.0000E+00  0.1200E+03  0.1200E+03
    -23.763  0.0000E+00  0.0000E+00  0.1200E+03  0.1200E+03
    -23.525  0.0000E+00  0.0000E+00  0.1200E+03  0.1200E+03
    -23.287  0.0000E+00  0.0000E+00  0.1200E+03  0.1200E+03
    -23.049  0.0000E+00  0.0000E+00  0.1200E+03  0.1200E+03
    -22.810  0.0000E+00  0.0000E+00  0.1200E+03  0.1200E+03
    -22.572  0.0000E+00  0.0000E+00  0.1200E+03  0.1200E+03
    -22.334  0.0000E+00  0.0000E+00  0.1200E+03  0.1200E+03
    -22.096  0.0000E+00  0.0000E+00  0.1200E+03  0.1200E+03
    -21.858  0.0000E+00  0.0000E+00  0.1200E+03  0.1200E+03
    -21.619  0.0000E+00  0.0000E+00  0.1200E+03  0.1200E+03
    -21.381  0.0000E+00  0.0000E+00  0.1200E+03  0.1200E+03
    -21.143  0.0000E+00  0.0000E+00  0.1200E+03  0.1200E+03
    -20.905  0.0000E+00  0.0000E+00  0.1200E+03  0.1200E+03
    -20.666  0.0000E+00  0.0000E+00  0.1200E+03  0.1200E+03
    -20.428  0.0000E+00  0.0000E+00  0.1200E+03  0.1200E+03
    -20.190  0.0000E+00  0.0000E+00  0.1200E+03  0.1200E+03
    -19.952  0.0000E+00  0.0000E+00  0.1200E+03  0.1200E+03
    -19.713  0.0000E+00  0.0000E+00  0.1200E+03  0.1200E+03
    -19.475  0.0000E+00  0.0000E+00  0.1200E+03  0.1200E+03
    -19.237  0.0000E+00  0.0000E+00  0.1200E+03  0.1200E+03
    -18.999  0.0000E+00  0.0000E+00  0.1200E+03  0.1200E+03
    -18.760  0.0000E+00  0.0000E+00  0.1200E+03  0.1200E+03
    -18.522  0.0000E+00  0.0000E+00  0.1200E+03  0.1200E+03
    -18.284  0.0000E+00  0.0000E+00  0.1200E+03  0.1200E+03
    -18.046  0.0000E+00  0.0000E+00  0.1200E+03  0.1200E+03
    -17.808  0.0000E+00  0.0000E+00  0.1200E+03  0.1200E+03
    -17.569  0.0000E+00  0.0000E+00  0.1200E+03  0.1200E+03
    -17.331  0.0000E+00  0.0000E+00  0.1200E+03  0.1200E+03
    -17.093  0.0000E+00  0.0000E+00  0.1200E+03  0.1200E+03
    -16.855  0.0000E+00  0.0000E+00  0.1200E+03  0.1200E+03
    -16.616  0.0000E+00  0.0000E+00  0.1200E+03  0.1200E+03
    -16.378  0.0000E+00  0.0000E+00  0.1200E+03  0.1200E+03
    -16.140  0.0000E+00  0.0000E+00  0.1200E+03  0.1200E+03
    -15.902  0.0000E+00  0.0000E+00  0.1200E+03  0.1200E+03
    -15.663  0.0000E+00  0.0000E+00  0.1200E+03  0.1200E+03
    -15.425  0.0000E+00  0.0000E+00  0.1200E+03  0.1200E+03
    -15.187  0.0000E+00  0.0000E+00  0.1200E+03  0.1200E+03
    -14.949  0.0000E+00  0.0000E+00  0.1200E+03  0.1200E+03
    -14.710  0.0000E+00  0.0000E+00  0.1200E+03  0.1200E+03
    -14.472  0.0000E+00  0.0000E+00  0.1200E+03  0.1200E+03
    -14.234  0.0000E+00  0.0000E+00  0.1200E+03  0.1200E+03
    -13.996  0.0000E+00  0.0000E+00  0.1200E+03  0.1200E+03
    -13.758  0.1855E-08  0.0000E+00  0.1200E+03  0.1200E+03
    -13.519  0.9365E+01  0.3279E-15  0.1222E+03  0.1200E+03
    -13.281  0.6000E+02  0.3686E+00  0.1365E+03  0.1201E+03
    -13.043  0.3138E+02  0.6781E+02  0.1440E+03  0.1362E+03
    -12.805  0.2135E-03  0.3256E+02  0.1440E+03  0.1440E+03
    -12.566  0.0000E+00  0.2292E-04  0.1440E+03  0.1440E+03
    -12.328  0.0000E+00  0.0000E+00  0.1440E+03  0.1440E+03
    -12.090  0.0000E+00  0.0000E+00  0.1440E+03  0.1440E+03
    -11.852  0.0000E+00  0.0000E+00  0.1440E+03  0.1440E+03
    -11.613  0.0000E+00  0.0000E+00  0.1440E+03  0.1440E+03
    -11.375  0.0000E+00  0.0000E+00  0.1440E+03  0.1440E+03
    -11.137  0.0000E+00  0.0000E+00  0.1440E+03  0.1440E+03
    -10.899  0.0000E+00  0.0000E+00  0.1440E+03  0.1440E+03
    -10.660  0.0000E+00  0.0000E+00  0.1440E+03  0.1440E+03
    -10.422  0.0000E+00  0.0000E+00  0.1440E+03  0.1440E+03
    -10.184  0.0000E+00  0.0000E+00  0.1440E+03  0.1440E+03
     -9.946  0.0000E+00  0.0000E+00  0.1440E+03  0.1440E+03
     -9.708  0.0000E+00  0.0000E+00  0.1440E+03  0.1440E+03
     -9.469  0.0000E+00  0.0000E+00  0.1440E+03  0.1440E+03
     -9.231  0.0000E+00  0.0000E+00  0.1440E+03  0.1440E+03
     -8.993  0.0000E+00  0.0000E+00  0.1440E+03  0.1440E+03
     -8.755  0.0000E+00  0.0000E+00  0.1440E+03  0.1440E+03
     -8.516  0.0000E+00  0.0000E+00  0.1440E+03  0.1440E+03
     -8.278  0.0000E+00  0.0000E+00  0.1440E+03  0.1440E+03
     -8.040  0.0000E+00  0.0000E+00  0.1440E+03  0.1440E+03
     -7.802  0.1424E-01  0.4142E-15  0.1440E+03  0.1440E+03
     -7.563  0.1876E+02  0.1535E+00  0.1485E+03  0.1440E+03
     -7.325  0.4836E+02  0.2938E+02  0.1600E+03  0.1510E+03
     -7.087  0.3282E+02  0.4934E+02  0.1678E+03  0.1628E+03
     -6.849  0.7898E+00  0.2126E+02  0.1680E+03  0.1679E+03
     -6.610  0.0000E+00  0.6059E+00  0.1680E+03  0.1680E+03
     -6.372  0.0000E+00  0.0000E+00  0.1680E+03  0.1680E+03
     -6.134  0.0000E+00  0.0000E+00  0.1680E+03  0.1680E+03
     -5.896  0.0000E+00  0.0000E+00  0.1680E+03  0.1680E+03
     -5.658  0.0000E+00  0.0000E+00  0.1680E+03  0.1680E+03
     -5.419  0.0000E+00  0.0000E+00  0.1680E+03  0.1680E+03
     -5.181  0.0000E+00  0.0000E+00  0.1680E+03  0.1680E+03
     -4.943  0.0000E+00  0.0000E+00  0.1680E+03  0.1680E+03
     -4.705  0.0000E+00  0.0000E+00  0.1680E+03  0.1680E+03
     -4.466  0.0000E+00  0.0000E+00  0.1680E+03  0.1680E+03
     -4.228  0.0000E+00  0.0000E+00  0.1680E+03  0.1680E+03
     -3.990  0.0000E+00  0.0000E+00  0.1680E+03  0.1680E+03
     -3.752  0.0000E+00  0.0000E+00  0.1680E+03  0.1680E+03
     -3.513  0.0000E+00  0.0000E+00  0.1680E+03  0.1680E+03
     -3.275  0.0000E+00  0.0000E+00  0.1680E+03  0.1680E+03
     -3.037  0.0000E+00  0.0000E+00  0.1680E+03  0.1680E+03
     -2.799  0.0000E+00  0.0000E+00  0.1680E+03  0.1680E+03
     -2.560  0.0000E+00  0.0000E+00  0.1680E+03  0.1680E+03
     -2.322  0.0000E+00  0.0000E+00  0.1680E+03  0.1680E+03
     -2.084  0.3594E-05  0.0000E+00  0.1680E+03  0.1680E+03
     -1.846  0.8539E+01  0.0000E+00  0.1700E+03  0.1680E+03
     -1.608  0.5872E+02  0.0000E+00  0.1840E+03  0.1680E+03
     -1.369  0.4081E+02  0.0000E+00  0.1937E+03  0.1680E+03
     -1.131  0.3269E+02  0.0000E+00  0.2015E+03  0.1680E+03
     -0.893  0.5426E+02  0.4135E-08  0.2145E+03  0.1680E+03
     -0.655  0.5319E+02  0.1924E+01  0.2271E+03  0.1685E+03
     -0.416  0.6722E+02  0.1753E+02  0.2431E+03  0.1726E+03
     -0.178  0.5391E+02  0.3884E+02  0.2560E+03  0.1819E+03
      0.060  0.3454E+02  0.3481E+02  0.2642E+03  0.1902E+03
      0.298  0.5527E+02  0.2324E+02  0.2774E+03  0.1957E+03
      0.537  0.4749E+02  0.4867E+02  0.2887E+03  0.2073E+03
      0.775  0.3244E+02  0.4868E+02  0.2964E+03  0.2189E+03
      1.013  0.4997E+02  0.6849E+02  0.3083E+03  0.2352E+03
      1.251  0.4932E+02  0.2550E+02  0.3201E+03  0.2413E+03
      1.489  0.5421E+02  0.2323E+02  0.3330E+03  0.2468E+03
      1.728  0.6184E+02  0.3834E+02  0.3477E+03  0.2560E+03
      1.966  0.3378E+02  0.4593E+02  0.3558E+03  0.2669E+03
      2.204  0.2401E+02  0.2932E+02  0.3615E+03  0.2739E+03
      2.442  0.1384E+02  0.3572E+02  0.3648E+03  0.2824E+03
      2.681  0.3760E+02  0.2542E+02  0.3738E+03  0.2885E+03
      2.919  0.3871E+02  0.4569E+02  0.3830E+03  0.2993E+03
      3.157  0.3046E+02  0.4175E+02  0.3902E+03  0.3093E+03
      3.395  0.4390E+02  0.1423E+02  0.4007E+03  0.3127E+03
      3.634  0.5360E+02  0.3115E+02  0.4135E+03  0.3201E+03
      3.872  0.4703E+02  0.5679E+02  0.4247E+03  0.3336E+03
      4.110  0.2890E+02  0.9947E+01  0.4315E+03  0.3360E+03
      4.348  0.1893E+01  0.5608E-05  0.4320E+03  0.3360E+03
      4.587  0.0000E+00  0.0000E+00  0.4320E+03  0.3360E+03
      4.825  0.0000E+00  0.0000E+00  0.4320E+03  0.3360E+03
      5.063  0.0000E+00  0.0000E+00  0.4320E+03  0.3360E+03
      5.301  0.0000E+00  0.0000E+00  0.4320E+03  0.3360E+03
      5.539  0.0000E+00  0.0000E+00  0.4320E+03  0.3360E+03
      5.778  0.0000E+00  0.0000E+00  0.4320E+03  0.3360E+03
      6.016  0.0000E+00  0.4867E-02  0.4320E+03  0.3360E+03
      6.254  0.0000E+00  0.1952E+01  0.4320E+03  0.3365E+03
      6.492  0.0000E+00  0.1371E+02  0.4320E+03  0.3397E+03
      6.731  0.0000E+00  0.2697E+02  0.4320E+03  0.3462E+03
      6.969  0.0000E+00  0.2530E+02  0.4320E+03  0.3522E+03
      7.207  0.1275E-04  0.5815E+02  0.4320E+03  0.3660E+03
      7.445  0.1552E+00  0.7518E+02  0.4320E+03  0.3839E+03
      7.684  0.7549E+00  0.2932E+02  0.4322E+03  0.3909E+03
      7.922  0.1530E+01  0.4135E+02  0.4326E+03  0.4008E+03
      8.160  0.4828E+01  0.7837E+02  0.4337E+03  0.4195E+03
      8.398  0.7189E+01  0.4945E+02  0.4354E+03  0.4312E+03
      8.637  0.1572E+02  0.3632E+01  0.4392E+03  0.4321E+03
      8.875  0.2399E+02  0.1176E+01  0.4449E+03  0.4324E+03
      9.113  0.1981E+02  0.4507E+01  0.4496E+03  0.4335E+03
      9.351  0.1939E+02  0.1084E+02  0.4542E+03  0.4360E+03
      9.589  0.1982E+02  0.2114E+02  0.4590E+03  0.4411E+03
      9.828  0.2445E+02  0.2884E+02  0.4648E+03  0.4479E+03
     10.066  0.2199E+02  0.3015E+02  0.4700E+03  0.4551E+03
     10.304  0.1793E+02  0.3003E+02  0.4743E+03  0.4623E+03
     10.542  0.2475E+02  0.2576E+02  0.4802E+03  0.4684E+03
     10.781  0.1490E+02  0.2587E+02  0.4837E+03  0.4746E+03
     11.019  0.2765E+02  0.2418E+02  0.4903E+03  0.4803E+03
     11.257  0.4552E+02  0.1038E+02  0.5012E+03  0.4828E+03
     11.495  0.4862E+02  0.2590E+02  0.5128E+03  0.4890E+03
     11.734  0.3509E+02  0.3068E+02  0.5211E+03  0.4963E+03
     11.972  0.2034E+02  0.5642E+02  0.5260E+03  0.5097E+03
     12.210  0.2077E+02  0.4437E+02  0.5309E+03  0.5203E+03
     12.448  0.3027E+02  0.2673E+02  0.5381E+03  0.5267E+03
     12.687  0.3223E+02  0.2382E+02  0.5458E+03  0.5323E+03
     12.925  0.1838E+02  0.2744E+02  0.5502E+03  0.5389E+03
     13.163  0.7540E+01  0.3300E+02  0.5520E+03  0.5467E+03
     13.401  0.9036E-01  0.1800E+02  0.5520E+03  0.5510E+03
     13.639  0.0000E+00  0.4045E+01  0.5520E+03  0.5520E+03
     13.878  0.0000E+00  0.3964E-05  0.5520E+03  0.5520E+03
     14.116  0.0000E+00  0.0000E+00  0.5520E+03  0.5520E+03
     14.354  0.0000E+00  0.0000E+00  0.5520E+03  0.5520E+03
     14.592  0.0000E+00  0.0000E+00  0.5520E+03  0.5520E+03
     14.831  0.0000E+00  0.0000E+00  0.5520E+03  0.5520E+03
     15.069  0.0000E+00  0.0000E+00  0.5520E+03  0.5520E+03
     15.307  0.0000E+00  0.0000E+00  0.5520E+03  0.5520E+03
     15.545  0.0000E+00  0.0000E+00  0.5520E+03  0.5520E+03
     15.784  0.0000E+00  0.0000E+00  0.5520E+03  0.5520E+03
     16.022  0.0000E+00  0.0000E+00  0.5520E+03  0.5520E+03
     16.260  0.0000E+00  0.0000E+00  0.5520E+03  0.5520E+03
     16.498  0.0000E+00  0.0000E+00  0.5520E+03  0.5520E+03
     16.737  0.0000E+00  0.0000E+00  0.5520E+03  0.5520E+03
