<?xml version="1.0" encoding="ISO-8859-1"?>
<modeling>
 <generator>
  <i name="program" type="string">vasp </i>
  <i name="version" type="string">5.4.4.18Apr17-6-g9f103f2a35  </i>
  <i name="subversion" type="string">(build Oct 25 2017 14:42:18) complex            parallel </i>
  <i name="platform" type="string">LinuxIFC </i>
  <i name="date" type="string">2021 04 16 </i>
  <i name="time" type="string">13:02:54 </i>
 </generator>
 <incar>
  <i type="string" name="PREC">accurate</i>
  <i type="string" name="ALGO"> normal</i>
  <i type="logical" name="ADDGRID"> T  </i>
  <i type="int" name="ISPIN">     2</i>
  <i type="int" name="ICHARG">     1</i>
  <i type="int" name="NELM">   200</i>
  <i type="int" name="NELMIN">     8</i>
  <i name="EDIFF">      0.00000100</i>
  <i type="int" name="ISIF">     3</i>
  <i type="int" name="ISYM">     0</i>
  <i name="ENCUT">    650.00000000</i>
  <v name="MAGMOM">      0.60000000      0.60000000      0.60000000      0.60000000      0.60000000      0.60000000      0.60000000      0.60000000      0.60000000      0.60000000      0.60000000      0.60000000      0.60000000      0.60000000      0.60000000      0.60000000      0.60000000      0.60000000      0.60000000      0.60000000
      0.60000000      0.60000000      0.60000000      0.60000000      0.60000000      0.60000000      0.60000000      0.60000000      0.60000000      0.60000000      0.60000000      0.60000000      0.60000000      0.60000000      0.60000000      0.60000000      0.60000000      0.60000000      0.60000000      0.60000000
      0.60000000      0.60000000      0.60000000      0.60000000      0.60000000      0.60000000      0.60000000      0.60000000      0.60000000      0.60000000      0.60000000      0.60000000      0.60000000      0.60000000      0.60000000      0.60000000      0.60000000      0.60000000      0.60000000      0.60000000
      0.60000000      0.60000000      0.60000000      0.60000000      0.60000000      0.60000000      0.60000000      0.60000000      0.60000000      0.60000000      0.60000000      0.60000000      0.60000000      0.60000000      0.60000000      0.60000000      0.60000000      0.60000000      0.60000000      0.60000000
      0.60000000      0.60000000      0.60000000      0.60000000      0.60000000      0.60000000      0.60000000      0.60000000      0.60000000      0.60000000      0.60000000      0.60000000      0.60000000      0.60000000      0.60000000      0.60000000      5.00000000      5.00000000      5.00000000      5.00000000
      5.00000000      5.00000000      5.00000000      5.00000000      5.00000000      5.00000000      5.00000000      5.00000000      5.00000000      5.00000000      5.00000000      5.00000000      5.00000000      5.00000000      5.00000000      5.00000000      5.00000000      5.00000000      5.00000000      5.00000000
</v>
  <i type="logical" name="LREAL"> F  </i>
  <i type="int" name="ISMEAR">     0</i>
  <i name="SIGMA">      0.05000000</i>
  <i type="int" name="NWRITE">     1</i>
  <i type="int" name="LMAXMIX">     4</i>
  <i type="logical" name="LWAVE"> F  </i>
  <i type="logical" name="LASPH"> T  </i>
  <v type="int" name="KPOINT_BSE">    -1     0     0     0</v>
  <i type="int" name="NELM">   200</i>
  <i type="string" name="GGA"> pe</i>
  <i type="logical" name="LDAU"> T  </i>
  <v type="int" name="LDAUTYPE">     2</v>
  <v type="int" name="LDAUL">    -1    -1    -1     2</v>
  <v name="LDAUU">      0.00000000      0.00000000      0.00000000      4.00000000</v>
  <v name="LDAUJ">      0.00000000      0.00000000      0.00000000      0.00000000</v>
  <i type="logical" name="LASPH"> T  </i>
 </incar>
 <structure name="primitive_cell" >
  <crystal>
   <varray name="basis" >
    <v>      11.73572724      -0.05744286       0.00000000 </v>
    <v>       0.05480788      11.21833490       0.00000000 </v>
    <v>       0.00000000       0.00000000      11.19562010 </v>
   </varray>
   <i name="volume">   1473.99817718 </i>
   <varray name="rec_basis" >
    <v>       0.08520785      -0.00041629       0.00000000 </v>
    <v>       0.00043630       0.08913766       0.00000000 </v>
    <v>       0.00000000       0.00000000       0.08932064 </v>
   </varray>
  </crystal>
  <varray name="positions" >
   <v>       0.03541706       0.36277547       0.35648149 </v>
   <v>      -0.13124269       0.36769238       0.37376509 </v>
   <v>       0.20209064       0.36858376       0.37376509 </v>
   <v>       0.03542751       0.37011947       0.12029448 </v>
   <v>      -0.13123875       0.21898060       0.27246215 </v>
   <v>       0.20209458       0.21898060       0.27246215 </v>
   <v>      -0.13123875       0.46898060       0.22753785 </v>
   <v>       0.20209458       0.46898060       0.22753785 </v>
   <v>       0.03542751       0.12011947       0.37970552 </v>
   <v>       0.03542751      -0.37988053       0.37970552 </v>
   <v>      -0.13123946       0.26225309      -0.48003463 </v>
   <v>       0.20209387       0.26225309      -0.48003463 </v>
   <v>      -0.13123946      -0.48774691       0.48003463 </v>
   <v>       0.20209387      -0.48774691       0.48003463 </v>
   <v>       0.03542751       0.37011947      -0.37970552 </v>
   <v>       0.03541706       0.11277547       0.14351851 </v>
   <v>       0.03541706      -0.38722453       0.14351851 </v>
   <v>       0.36875039       0.36277547       0.35648149 </v>
   <v>      -0.29791628       0.36277547       0.35648149 </v>
   <v>      -0.13124269       0.11769238       0.12623491 </v>
   <v>       0.20209064       0.11769238       0.12623491 </v>
   <v>       0.03541706       0.11277547      -0.35648149 </v>
   <v>       0.03541706      -0.38722453      -0.35648149 </v>
   <v>      -0.13124269      -0.38230762       0.12623491 </v>
   <v>       0.20209064      -0.38230762       0.12623491 </v>
   <v>      -0.13123946       0.26225309       0.01996537 </v>
   <v>       0.20209387       0.26225309       0.01996537 </v>
   <v>      -0.13124269       0.11769238      -0.37376509 </v>
   <v>       0.20209064       0.11769238      -0.37376509 </v>
   <v>      -0.13123875      -0.28101940       0.27246215 </v>
   <v>       0.20209458      -0.28101940       0.27246215 </v>
   <v>      -0.13124269      -0.38230762      -0.37376509 </v>
   <v>       0.20209064      -0.38230762      -0.37376509 </v>
   <v>      -0.13123946       0.01225309       0.48003463 </v>
   <v>       0.20209387       0.01225309       0.48003463 </v>
   <v>      -0.29790582       0.37011947       0.12029448 </v>
   <v>       0.36876084       0.37011947       0.12029448 </v>
   <v>      -0.13123875       0.46898060      -0.27246215 </v>
   <v>       0.20209458       0.46898060      -0.27246215 </v>
   <v>      -0.29790582       0.12011947       0.37970552 </v>
   <v>       0.36876084       0.12011947       0.37970552 </v>
   <v>      -0.29790582      -0.37988053       0.37970552 </v>
   <v>       0.36876084      -0.37988053       0.37970552 </v>
   <v>      -0.29790582       0.37011947      -0.37970552 </v>
   <v>       0.36876084       0.37011947      -0.37970552 </v>
   <v>      -0.13123946      -0.48774691      -0.01996537 </v>
   <v>       0.20209387      -0.48774691      -0.01996537 </v>
   <v>      -0.13123875      -0.03101940       0.22753785 </v>
   <v>       0.20209458      -0.03101940       0.22753785 </v>
   <v>      -0.13123946      -0.23774691      -0.48003463 </v>
   <v>       0.20209387      -0.23774691      -0.48003463 </v>
   <v>      -0.13123875       0.21898060      -0.22753785 </v>
   <v>       0.20209458       0.21898060      -0.22753785 </v>
   <v>       0.36875039      -0.38722453       0.14351851 </v>
   <v>      -0.29791628       0.11277547       0.14351851 </v>
   <v>       0.36875039       0.11277547       0.14351851 </v>
   <v>      -0.29791628      -0.38722453       0.14351851 </v>
   <v>       0.03541706       0.36277547      -0.14351851 </v>
   <v>       0.03541706      -0.13722453       0.35648149 </v>
   <v>      -0.13124269       0.36769238      -0.12623491 </v>
   <v>       0.20209064       0.36769238      -0.12623491 </v>
   <v>       0.36875039      -0.38722453      -0.35648149 </v>
   <v>      -0.29791628       0.11277547      -0.35648149 </v>
   <v>       0.36875039       0.11277547      -0.35648149 </v>
   <v>      -0.29791628      -0.38722453      -0.35648149 </v>
   <v>      -0.46457602       0.36769238       0.37376509 </v>
   <v>      -0.13124269      -0.13230762       0.37376509 </v>
   <v>       0.20209064      -0.13230762       0.37376509 </v>
   <v>       0.03542751       0.12011947      -0.12029448 </v>
   <v>       0.03542751      -0.37988053      -0.12029448 </v>
   <v>      -0.13123946       0.01225309      -0.01996537 </v>
   <v>       0.20209387       0.01225309      -0.01996537 </v>
   <v>       0.03542751      -0.12988053       0.12029448 </v>
   <v>      -0.46457208       0.21898060       0.27246215 </v>
   <v>      -0.46457208       0.46898060       0.22753785 </v>
   <v>      -0.13123946      -0.23774691       0.01996537 </v>
   <v>       0.20209387      -0.23774691       0.01996537 </v>
   <v>      -0.46457280       0.26225309      -0.48003463 </v>
   <v>      -0.46457280      -0.48774691       0.48003463 </v>
   <v>       0.03542751      -0.12988053      -0.37970552 </v>
   <v>      -0.13123875      -0.03101940      -0.27246215 </v>
   <v>       0.20209458      -0.03101940      -0.27246215 </v>
   <v>      -0.13123875      -0.28101940      -0.22753785 </v>
   <v>       0.20209458      -0.28101940      -0.22753785 </v>
   <v>       0.36875039       0.36277547      -0.14351851 </v>
   <v>      -0.29791628       0.36277547      -0.14351851 </v>
   <v>       0.36875039      -0.13722453       0.35648149 </v>
   <v>      -0.29791628      -0.13722453       0.35648149 </v>
   <v>      -0.46457602       0.11769238       0.12623491 </v>
   <v>      -0.46457602      -0.38230762       0.12623491 </v>
   <v>      -0.46457280       0.26225309       0.01996537 </v>
   <v>      -0.46457602       0.11769238      -0.37376509 </v>
   <v>      -0.29790582       0.12011947      -0.12029448 </v>
   <v>       0.36876084       0.12011947      -0.12029448 </v>
   <v>      -0.46457208      -0.28101940       0.27246215 </v>
   <v>      -0.46457602      -0.38230762      -0.37376509 </v>
   <v>      -0.46457280       0.01225309       0.48003463 </v>
   <v>      -0.29790582      -0.37988053      -0.12029448 </v>
   <v>       0.36876084      -0.37988053      -0.12029448 </v>
   <v>      -0.29790582      -0.12988053       0.12029448 </v>
   <v>       0.36876084      -0.12988053       0.12029448 </v>
   <v>      -0.46457208       0.46898060      -0.27246215 </v>
   <v>      -0.29790582      -0.12988053      -0.37970552 </v>
   <v>       0.36876084      -0.12988053      -0.37970552 </v>
   <v>      -0.46457280      -0.48774691      -0.01996537 </v>
   <v>      -0.46457208      -0.03101940       0.22753785 </v>
   <v>      -0.46457280      -0.23774691      -0.48003463 </v>
   <v>      -0.46457208       0.21898060      -0.22753785 </v>
   <v>       0.03541706      -0.13722453      -0.14351851 </v>
   <v>      -0.46457602       0.36769238      -0.12623491 </v>
   <v>      -0.13124269      -0.13230762      -0.12623491 </v>
   <v>       0.20209064      -0.13230762      -0.12623491 </v>
   <v>      -0.46457602      -0.13230762       0.37376509 </v>
   <v>      -0.46457280       0.01225309      -0.01996537 </v>
   <v>      -0.46457280      -0.23774691       0.01996537 </v>
   <v>      -0.46457208      -0.03101940      -0.27246215 </v>
   <v>      -0.46457208      -0.28101940      -0.22753785 </v>
   <v>       0.36875039      -0.13722453      -0.14351851 </v>
   <v>      -0.29791628      -0.13722453      -0.14351851 </v>
   <v>      -0.46457602      -0.13230762      -0.12623491 </v>
  </varray>
 </structure>
 <varray name="primitive_index" >
  <v type="int" >        1 </v>
  <v type="int" >       51 </v>
  <v type="int" >       49 </v>
  <v type="int" >       73 </v>
  <v type="int" >       27 </v>
  <v type="int" >       25 </v>
  <v type="int" >       39 </v>
  <v type="int" >       37 </v>
  <v type="int" >       85 </v>
  <v type="int" >       88 </v>
  <v type="int" >      117 </v>
  <v type="int" >      115 </v>
  <v type="int" >      102 </v>
  <v type="int" >      100 </v>
  <v type="int" >       79 </v>
  <v type="int" >       13 </v>
  <v type="int" >       16 </v>
  <v type="int" >        2 </v>
  <v type="int" >        3 </v>
  <v type="int" >       63 </v>
  <v type="int" >       61 </v>
  <v type="int" >       19 </v>
  <v type="int" >       22 </v>
  <v type="int" >       66 </v>
  <v type="int" >       64 </v>
  <v type="int" >      111 </v>
  <v type="int" >      109 </v>
  <v type="int" >       69 </v>
  <v type="int" >       67 </v>
  <v type="int" >       30 </v>
  <v type="int" >       28 </v>
  <v type="int" >       72 </v>
  <v type="int" >       70 </v>
  <v type="int" >       99 </v>
  <v type="int" >       97 </v>
  <v type="int" >       75 </v>
  <v type="int" >       74 </v>
  <v type="int" >       45 </v>
  <v type="int" >       43 </v>
  <v type="int" >       87 </v>
  <v type="int" >       86 </v>
  <v type="int" >       90 </v>
  <v type="int" >       89 </v>
  <v type="int" >       81 </v>
  <v type="int" >       80 </v>
  <v type="int" >      108 </v>
  <v type="int" >      106 </v>
  <v type="int" >       42 </v>
  <v type="int" >       40 </v>
  <v type="int" >      120 </v>
  <v type="int" >      118 </v>
  <v type="int" >       33 </v>
  <v type="int" >       31 </v>
  <v type="int" >       17 </v>
  <v type="int" >       15 </v>
  <v type="int" >       14 </v>
  <v type="int" >       18 </v>
  <v type="int" >        7 </v>
  <v type="int" >        4 </v>
  <v type="int" >       57 </v>
  <v type="int" >       55 </v>
  <v type="int" >       23 </v>
  <v type="int" >       21 </v>
  <v type="int" >       20 </v>
  <v type="int" >       24 </v>
  <v type="int" >       50 </v>
  <v type="int" >       54 </v>
  <v type="int" >       52 </v>
  <v type="int" >       91 </v>
  <v type="int" >       94 </v>
  <v type="int" >      105 </v>
  <v type="int" >      103 </v>
  <v type="int" >       76 </v>
  <v type="int" >       26 </v>
  <v type="int" >       38 </v>
  <v type="int" >      114 </v>
  <v type="int" >      112 </v>
  <v type="int" >      116 </v>
  <v type="int" >      101 </v>
  <v type="int" >       82 </v>
  <v type="int" >       48 </v>
  <v type="int" >       46 </v>
  <v type="int" >       36 </v>
  <v type="int" >       34 </v>
  <v type="int" >        8 </v>
  <v type="int" >        9 </v>
  <v type="int" >        5 </v>
  <v type="int" >        6 </v>
  <v type="int" >       62 </v>
  <v type="int" >       65 </v>
  <v type="int" >      110 </v>
  <v type="int" >       68 </v>
  <v type="int" >       93 </v>
  <v type="int" >       92 </v>
  <v type="int" >       29 </v>
  <v type="int" >       71 </v>
  <v type="int" >       98 </v>
  <v type="int" >       96 </v>
  <v type="int" >       95 </v>
  <v type="int" >       78 </v>
  <v type="int" >       77 </v>
  <v type="int" >       44 </v>
  <v type="int" >       84 </v>
  <v type="int" >       83 </v>
  <v type="int" >      107 </v>
  <v type="int" >       41 </v>
  <v type="int" >      119 </v>
  <v type="int" >       32 </v>
  <v type="int" >       10 </v>
  <v type="int" >       56 </v>
  <v type="int" >       60 </v>
  <v type="int" >       58 </v>
  <v type="int" >       53 </v>
  <v type="int" >      104 </v>
  <v type="int" >      113 </v>
  <v type="int" >       47 </v>
  <v type="int" >       35 </v>
  <v type="int" >       11 </v>
  <v type="int" >       12 </v>
  <v type="int" >       59 </v>
 </varray>
 <kpoints>
  <generation param="Gamma">
   <v type="int" name="divisions">       3        3        3 </v>
   <v name="usershift">      0.00000000       0.00000000       0.00000000 </v>
   <v name="genvec1">      0.33333333       0.00000000       0.00000000 </v>
   <v name="genvec2">     -0.00000000       0.33333333       0.00000000 </v>
   <v name="genvec3">      0.00000000       0.00000000       0.33333333 </v>
   <v name="shift">      0.00000000       0.00000000       0.00000000 </v>
  </generation>
  <varray name="kpointlist" >
   <v>       0.00000000       0.00000000       0.00000000 </v>
   <v>       0.33333333       0.00000000       0.00000000 </v>
   <v>       0.00000000       0.33333333       0.00000000 </v>
   <v>       0.33333333       0.33333333       0.00000000 </v>
   <v>      -0.33333333       0.33333333       0.00000000 </v>
   <v>       0.00000000       0.00000000       0.33333333 </v>
   <v>       0.33333333       0.00000000       0.33333333 </v>
   <v>      -0.33333333       0.00000000       0.33333333 </v>
   <v>       0.00000000       0.33333333       0.33333333 </v>
   <v>       0.33333333       0.33333333       0.33333333 </v>
   <v>      -0.33333333       0.33333333       0.33333333 </v>
   <v>      -0.00000000      -0.33333333       0.33333333 </v>
   <v>       0.33333333      -0.33333333       0.33333333 </v>
   <v>      -0.33333333      -0.33333333       0.33333333 </v>
  </varray>
  <varray name="weights" >
   <v>       0.03703704 </v>
   <v>       0.07407407 </v>
   <v>       0.07407407 </v>
   <v>       0.07407407 </v>
   <v>       0.07407407 </v>
   <v>       0.07407407 </v>
   <v>       0.07407407 </v>
   <v>       0.07407407 </v>
   <v>       0.07407407 </v>
   <v>       0.07407407 </v>
   <v>       0.07407407 </v>
   <v>       0.07407407 </v>
   <v>       0.07407407 </v>
   <v>       0.07407407 </v>
  </varray>
 </kpoints>
 <parameters>
  <separator name="general" >
   <i type="string" name="SYSTEM">unknown system</i>
   <i type="logical" name="LCOMPAT"> F  </i>
  </separator>
  <separator name="electronic" >
   <i type="string" name="PREC">accura</i>
   <i name="ENMAX">    650.00000000</i>
   <i name="ENAUG">    628.94500000</i>
   <i name="EDIFF">      0.00000100</i>
   <i type="int" name="IALGO">    38</i>
   <i type="int" name="IWAVPR">    10</i>
   <i type="int" name="NBANDS">   552</i>
   <i name="NELECT">    768.00000000</i>
   <i type="int" name="TURBO">     0</i>
   <i type="int" name="IRESTART">     0</i>
   <i type="int" name="NREBOOT">     0</i>
   <i type="int" name="NMIN">     0</i>
   <i name="EREF">      0.00000000</i>
   <separator name="electronic smearing" >
    <i type="int" name="ISMEAR">     0</i>
    <i name="SIGMA">      0.05000000</i>
    <i name="KSPACING">      0.50000000</i>
    <i type="logical" name="KGAMMA"> T  </i>
   </separator>
   <separator name="electronic projectors" >
    <i type="logical" name="LREAL"> F  </i>
    <v name="ROPT">      0.00000000      0.00000000      0.00000000      0.00000000</v>
    <i type="int" name="LMAXPAW">  -100</i>
    <i type="int" name="LMAXMIX">     4</i>
    <i type="logical" name="NLSPLINE"> F  </i>
   </separator>
   <separator name="electronic startup" >
    <i type="int" name="ISTART">     0</i>
    <i type="int" name="ICHARG">     1</i>
    <i type="int" name="INIWAV">     1</i>
   </separator>
   <separator name="electronic spin" >
    <i type="int" name="ISPIN">     2</i>
    <i type="logical" name="LNONCOLLINEAR"> F  </i>
    <v name="MAGMOM">      0.60000000      0.60000000      0.60000000      0.60000000      0.60000000      0.60000000      0.60000000      0.60000000      0.60000000      0.60000000      0.60000000      0.60000000      0.60000000      0.60000000      0.60000000      0.60000000      0.60000000      0.60000000      0.60000000      0.60000000
      0.60000000      0.60000000      0.60000000      0.60000000      0.60000000      0.60000000      0.60000000      0.60000000      0.60000000      0.60000000      0.60000000      0.60000000      0.60000000      0.60000000      0.60000000      0.60000000      0.60000000      0.60000000      0.60000000      0.60000000
      0.60000000      0.60000000      0.60000000      0.60000000      0.60000000      0.60000000      0.60000000      0.60000000      0.60000000      0.60000000      0.60000000      0.60000000      0.60000000      0.60000000      0.60000000      0.60000000      0.60000000      0.60000000      0.60000000      0.60000000
      0.60000000      0.60000000      0.60000000      0.60000000      0.60000000      0.60000000      0.60000000      0.60000000      0.60000000      0.60000000      0.60000000      0.60000000      0.60000000      0.60000000      0.60000000      0.60000000      0.60000000      0.60000000      0.60000000      0.60000000
      0.60000000      0.60000000      0.60000000      0.60000000      0.60000000      0.60000000      0.60000000      0.60000000      0.60000000      0.60000000      0.60000000      0.60000000      0.60000000      0.60000000      0.60000000      0.60000000      5.00000000      5.00000000      5.00000000      5.00000000
      5.00000000      5.00000000      5.00000000      5.00000000      5.00000000      5.00000000      5.00000000      5.00000000      5.00000000      5.00000000      5.00000000      5.00000000      5.00000000      5.00000000      5.00000000      5.00000000      5.00000000      5.00000000      5.00000000      5.00000000
</v>
    <i name="NUPDOWN">     -1.00000000</i>
    <i type="logical" name="LSORBIT"> F  </i>
    <v name="SAXIS">      0.00000000      0.00000000      1.00000000</v>
    <i type="logical" name="LSPIRAL"> F  </i>
    <v name="QSPIRAL">      0.00000000      0.00000000      0.00000000</v>
    <i type="logical" name="LZEROZ"> F  </i>
   </separator>
   <separator name="electronic exchange-correlation" >
    <i type="logical" name="LASPH"> T  </i>
    <i type="logical" name="LMETAGGA"> F  </i>
   </separator>
   <separator name="electronic convergence" >
    <i type="int" name="NELM">   200</i>
    <i type="int" name="NELMDL">     0</i>
    <i type="int" name="NELMIN">     8</i>
    <i name="ENINI">    650.00000000</i>
    <separator name="electronic convergence detail" >
     <i type="logical" name="LDIAG"> T  </i>
     <i type="logical" name="LSUBROT"> F  </i>
     <i name="WEIMIN">      0.00000000</i>
     <i name="EBREAK">      0.00000000</i>
     <i name="DEPER">      0.30000000</i>
     <i type="int" name="NRMM">     4</i>
     <i name="TIME">      0.40000000</i>
    </separator>
   </separator>
   <separator name="electronic mixer" >
    <i name="AMIX">      0.40000000</i>
    <i name="BMIX">      1.00000000</i>
    <i name="AMIN">      0.10000000</i>
    <i name="AMIX_MAG">      1.60000000</i>
    <i name="BMIX_MAG">      1.00000000</i>
    <separator name="electronic mixer details" >
     <i type="int" name="IMIX">     4</i>
     <i type="logical" name="MIXFIRST"> F  </i>
     <i type="int" name="MAXMIX">   -45</i>
     <i name="WC">    100.00000000</i>
     <i type="int" name="INIMIX">     1</i>
     <i type="int" name="MIXPRE">     1</i>
     <i type="int" name="MREMOVE">     5</i>
    </separator>
   </separator>
   <separator name="electronic dipolcorrection" >
    <i type="logical" name="LDIPOL"> F  </i>
    <i type="logical" name="LMONO"> F  </i>
    <i type="int" name="IDIPOL">     0</i>
    <i name="EPSILON">      1.00000000</i>
    <v name="DIPOL">   -100.00000000   -100.00000000   -100.00000000</v>
    <i name="EFIELD">      0.00000000</i>
   </separator>
  </separator>
  <separator name="grids" >
   <i type="int" name="NGX">    98</i>
   <i type="int" name="NGY">    96</i>
   <i type="int" name="NGZ">    96</i>
   <i type="int" name="NGXF">   196</i>
   <i type="int" name="NGYF">   192</i>
   <i type="int" name="NGZF">   192</i>
   <i type="logical" name="ADDGRID"> T  </i>
  </separator>
  <separator name="ionic" >
   <i type="int" name="NSW">     0</i>
   <i type="int" name="IBRION">    -1</i>
   <i type="int" name="MDALGO">     0</i>
   <i type="int" name="ISIF">     3</i>
   <i name="PSTRESS">      0.00000000</i>
   <i name="EDIFFG">      0.00001000</i>
   <i type="int" name="NFREE">     0</i>
   <i name="POTIM">      0.50000000</i>
   <i name="SMASS">     -3.00000000</i>
   <i name="SCALEE">      1.00000000</i>
  </separator>
  <separator name="ionic md" >
   <i name="TEBEG">      0.00010000</i>
   <i name="TEEND">      0.00010000</i>
   <i type="int" name="NBLOCK">     1</i>
   <i type="int" name="KBLOCK">     1</i>
   <i type="int" name="NPACO">   256</i>
   <i name="APACO">     16.00000000</i>
  </separator>
  <separator name="symmetry" >
   <i type="int" name="ISYM">     0</i>
   <i name="SYMPREC">      0.00001000</i>
  </separator>
  <separator name="dos" >
   <i type="int" name="LORBIT">     0</i>
   <v name="RWIGS">     -1.00000000     -1.00000000     -1.00000000     -1.00000000</v>
   <i type="int" name="NEDOS">   301</i>
   <i name="EMIN">     10.00000000</i>
   <i name="EMAX">    -10.00000000</i>
   <i name="EFERMI">      0.00000000</i>
  </separator>
  <separator name="writing" >
   <i type="int" name="NWRITE">     1</i>
   <i type="logical" name="LWAVE"> F  </i>
   <i type="logical" name="LDOWNSAMPLE"> F  </i>
   <i type="logical" name="LCHARG"> T  </i>
   <i type="logical" name="LPARD"> F  </i>
   <i type="logical" name="LVTOT"> F  </i>
   <i type="logical" name="LVHAR"> F  </i>
   <i type="logical" name="LELF"> F  </i>
   <i type="logical" name="LOPTICS"> F  </i>
   <v name="STM">      0.00000000      0.00000000      0.00000000      0.00000000      0.00000000      0.00000000      0.00000000</v>
  </separator>
  <separator name="performance" >
   <i type="int" name="NPAR">     4</i>
   <i type="int" name="NSIM">     4</i>
   <i type="int" name="NBLK">    -1</i>
   <i type="logical" name="LPLANE"> T  </i>
   <i type="logical" name="LSCALAPACK"> T  </i>
   <i type="logical" name="LSCAAWARE"> F  </i>
   <i type="logical" name="LSCALU"> F  </i>
   <i type="logical" name="LASYNC"> F  </i>
   <i type="logical" name="LORBITALREAL"> F  </i>
  </separator>
  <separator name="miscellaneous" >
   <i type="int" name="IDIOT">     3</i>
   <i type="int" name="ISPECIAL">     0</i>
   <i type="logical" name="LMUSIC"> F  </i>
   <v name="POMASS">      7.01000000     16.00000000     32.06600000     55.84700000</v>
   <v name="DARWINR">      0.00000000      0.00000000      0.00000000      0.00000000</v>
   <v name="DARWINV">      1.00000000      1.00000000      1.00000000      1.00000000</v>
   <i type="logical" name="LCORR"> T  </i>
  </separator>
  <i type="logical" name="GGA_COMPAT"> T  </i>
  <i type="logical" name="LBERRY"> F  </i>
  <i type="int" name="ICORELEVEL">     0</i>
  <i type="logical" name="LDAU"> T  </i>
  <v type="int" name="LDAUTYPE">     2</v>
  <v type="int" name="LDAUL">    -1</v>
  <v name="LDAUU">      0.00000000</v>
  <v name="LDAUJ">      0.00000000</v>
  <i type="int" name="LDAUPRINT">     0</i>
  <i type="int" name="I_CONSTRAINED_M">     0</i>
  <separator name="electronic exchange-correlation" >
   <i type="string" name="GGA">PE</i>
   <i type="int" name="VOSKOWN">     0</i>
   <i type="logical" name="LHFCALC"> F  </i>
   <i type="string" name="PRECFOCK"></i>
   <i type="logical" name="LSYMGRAD"> F  </i>
   <i type="logical" name="LHFONE"> F  </i>
   <i type="logical" name="LRHFCALC"> F  </i>
   <i type="logical" name="LTHOMAS"> F  </i>
   <i type="logical" name="LMODELHF"> F  </i>
   <i name="ENCUT4O">     -1.00000000</i>
   <i type="int" name="EXXOEP">     0</i>
   <i type="int" name="FOURORBIT">     0</i>
   <i name="AEXX">      0.00000000</i>
   <i name="HFALPHA">      0.00000000</i>
   <i name="MCALPHA">      0.00000000</i>
   <i name="ALDAX">      1.00000000</i>
   <i name="AGGAX">      1.00000000</i>
   <i name="ALDAC">      1.00000000</i>
   <i name="AGGAC">      1.00000000</i>
   <i type="int" name="NKREDX">     1</i>
   <i type="int" name="NKREDY">     1</i>
   <i type="int" name="NKREDZ">     1</i>
   <i type="logical" name="SHIFTRED"> F  </i>
   <i type="logical" name="ODDONLY"> F  </i>
   <i type="logical" name="EVENONLY"> F  </i>
   <i type="int" name="LMAXFOCK">     0</i>
   <i type="int" name="NMAXFOCKAE">     0</i>
   <i type="logical" name="LFOCKAEDFT"> F  </i>
   <i name="HFSCREEN">      0.00000000</i>
   <i name="HFSCREENC">      0.00000000</i>
   <i type="int" name="NBANDSGWLOW">     0</i>
  </separator>
  <separator name="vdW DFT" >
   <i type="logical" name="LUSE_VDW"> F  </i>
   <i name="Zab_VDW">     -0.84910000</i>
   <i name="PARAM1">      0.12340000</i>
   <i name="PARAM2">      1.00000000</i>
   <i name="PARAM3">      0.00000000</i>
  </separator>
  <separator name="model GW" >
   <i type="int" name="MODEL_GW">     0</i>
   <i name="MODEL_EPS0">      7.36999089</i>
   <i name="MODEL_ALPHA">      1.00000000</i>
  </separator>
  <separator name="linear response parameters" >
   <i type="logical" name="LEPSILON"> F  </i>
   <i type="logical" name="LRPA"> F  </i>
   <i type="logical" name="LNABLA"> F  </i>
   <i type="logical" name="LVEL"> F  </i>
   <i type="int" name="KINTER">     0</i>
   <i name="CSHIFT">      0.10000000</i>
   <i name="OMEGAMAX">     -1.00000000</i>
   <i name="DEG_THRESHOLD">      0.00200000</i>
   <i name="RTIME">     -0.10000000</i>
   <i name="WPLASMAI">      0.00000000</i>
   <v name="DFIELD">      0.00000000      0.00000000      0.00000000</v>
   <v name="WPLASMA">      0.00000000      0.00000000      0.00000000      0.00000000      0.00000000      0.00000000      0.00000000      0.00000000      0.00000000</v>
  </separator>
  <separator name="orbital magnetization" >
   <i type="logical" name="NUCIND"> F  </i>
   <v name="MAGPOS">      0.00000000      0.00000000      0.00000000</v>
   <i type="logical" name="LNICSALL"> T  </i>
   <i type="logical" name="ORBITALMAG"> F  </i>
   <i type="logical" name="LMAGBLOCH"> F  </i>
   <i type="logical" name="LCHIMAG"> F  </i>
   <i type="logical" name="LGAUGE"> T  </i>
   <i type="int" name="MAGATOM">     0</i>
   <v name="MAGDIPOL">      0.00000000      0.00000000      0.00000000</v>
   <v name="AVECCONST">      0.00000000      0.00000000      0.00000000</v>
  </separator>
  <separator name="response functions" >
   <i type="logical" name="LADDER"> F  </i>
   <i type="logical" name="LRPAFORCE"> F  </i>
   <i type="logical" name="LFXC"> F  </i>
   <i type="logical" name="LHARTREE"> T  </i>
   <i type="int" name="IBSE">     0</i>
   <v type="int" name="KPOINT">    -1     0     0     0</v>
   <i type="logical" name="LTCTE"> F  </i>
   <i type="logical" name="LTETE"> F  </i>
   <i type="logical" name="LTRIPLET"> F  </i>
   <i type="logical" name="LFXCEPS"> F  </i>
   <i type="logical" name="LFXHEG"> F  </i>
   <i type="int" name="NATURALO">     2</i>
   <i type="logical" name="L2ORDER"> F  </i>
   <i type="logical" name="LMP2LT"> F  </i>
   <i type="logical" name="LUSEW"> F  </i>
   <i name="ENCUTGW">     -2.00000000</i>
   <i name="ENCUTGWSOFT">     -2.00000000</i>
   <i name="ENCUTLF">     -1.00000000</i>
   <i type="int" name="LMAXMP2">    -1</i>
   <i name="SCISSOR">      0.00000000</i>
   <i type="int" name="NOMEGA">     0</i>
   <i type="int" name="NOMEGAR">     0</i>
   <i type="int" name="NBANDSGW">    -1</i>
   <i type="int" name="NBANDSO">    -1</i>
   <i type="int" name="NBANDSV">    -1</i>
   <i type="int" name="NELM">   200</i>
   <i type="int" name="NELMHF">     1</i>
   <i type="int" name="DIM">     3</i>
   <i type="int" name="ANTIRES">     0</i>
   <i name="OMEGAMAX">    -30.00000000</i>
   <i name="OMEGAMIN">    -30.00000000</i>
   <i name="OMEGATL">   -200.00000000</i>
   <i type="int" name="OMEGAGRID">   140</i>
   <i name="CSHIFT">     -0.10000000</i>
   <i type="logical" name="SELFENERGY"> F  </i>
   <i type="logical" name="LSPECTRAL"> F  </i>
   <i type="logical" name="LSPECTRALGW"> F  </i>
   <i type="logical" name="LSINGLES"> F  </i>
   <i type="logical" name="LFERMIGW"> F  </i>
   <i type="logical" name="ODDONLYGW"> F  </i>
   <i type="logical" name="EVENONLYGW"> F  </i>
   <i type="int" name="NKREDLFX">     1</i>
   <i type="int" name="NKREDLFY">     1</i>
   <i type="int" name="NKREDLFZ">     1</i>
   <i type="int" name="MAXMEM">  2800</i>
   <i type="int" name="TELESCOPE">     0</i>
   <i type="int" name="TAUPAR">     1</i>
   <i type="int" name="OMEGAPAR">    -1</i>
   <i name="LAMBDA">      1.00000000</i>
  </separator>
  <separator name="External order field" >
   <i name="OFIELD_KAPPA">      0.00000000</i>
   <v name="OFIELD_K">      0.00000000      0.00000000      0.00000000</v>
   <i name="OFIELD_Q6_NEAR">      0.00000000</i>
   <i name="OFIELD_Q6_FAR">      0.00000000</i>
   <i name="OFIELD_A">      0.00000000</i>
  </separator>
 </parameters>
 <atominfo>
  <atoms>     120 </atoms>
  <types>       4 </types>
  <array name="atoms" >
   <dimension dim="1">ion</dimension>
   <field type="string">element</field>
   <field type="int">atomtype</field>
   <set>
    <rc><c>Li</c><c>   1</c></rc>
    <rc><c>Li</c><c>   1</c></rc>
    <rc><c>Li</c><c>   1</c></rc>
    <rc><c>Li</c><c>   1</c></rc>
    <rc><c>Li</c><c>   1</c></rc>
    <rc><c>Li</c><c>   1</c></rc>
    <rc><c>Li</c><c>   1</c></rc>
    <rc><c>Li</c><c>   1</c></rc>
    <rc><c>Li</c><c>   1</c></rc>
    <rc><c>Li</c><c>   1</c></rc>
    <rc><c>Li</c><c>   1</c></rc>
    <rc><c>Li</c><c>   1</c></rc>
    <rc><c>Li</c><c>   1</c></rc>
    <rc><c>Li</c><c>   1</c></rc>
    <rc><c>Li</c><c>   1</c></rc>
    <rc><c>Li</c><c>   1</c></rc>
    <rc><c>Li</c><c>   1</c></rc>
    <rc><c>Li</c><c>   1</c></rc>
    <rc><c>Li</c><c>   1</c></rc>
    <rc><c>Li</c><c>   1</c></rc>
    <rc><c>Li</c><c>   1</c></rc>
    <rc><c>Li</c><c>   1</c></rc>
    <rc><c>Li</c><c>   1</c></rc>
    <rc><c>Li</c><c>   1</c></rc>
    <rc><c>Li</c><c>   1</c></rc>
    <rc><c>Li</c><c>   1</c></rc>
    <rc><c>Li</c><c>   1</c></rc>
    <rc><c>Li</c><c>   1</c></rc>
    <rc><c>Li</c><c>   1</c></rc>
    <rc><c>Li</c><c>   1</c></rc>
    <rc><c>Li</c><c>   1</c></rc>
    <rc><c>Li</c><c>   1</c></rc>
    <rc><c>Li</c><c>   1</c></rc>
    <rc><c>Li</c><c>   1</c></rc>
    <rc><c>Li</c><c>   1</c></rc>
    <rc><c>Li</c><c>   1</c></rc>
    <rc><c>Li</c><c>   1</c></rc>
    <rc><c>Li</c><c>   1</c></rc>
    <rc><c>Li</c><c>   1</c></rc>
    <rc><c>Li</c><c>   1</c></rc>
    <rc><c>Li</c><c>   1</c></rc>
    <rc><c>Li</c><c>   1</c></rc>
    <rc><c>Li</c><c>   1</c></rc>
    <rc><c>Li</c><c>   1</c></rc>
    <rc><c>Li</c><c>   1</c></rc>
    <rc><c>Li</c><c>   1</c></rc>
    <rc><c>Li</c><c>   1</c></rc>
    <rc><c>Li</c><c>   1</c></rc>
    <rc><c>O </c><c>   2</c></rc>
    <rc><c>O </c><c>   2</c></rc>
    <rc><c>O </c><c>   2</c></rc>
    <rc><c>O </c><c>   2</c></rc>
    <rc><c>O </c><c>   2</c></rc>
    <rc><c>O </c><c>   2</c></rc>
    <rc><c>O </c><c>   2</c></rc>
    <rc><c>O </c><c>   2</c></rc>
    <rc><c>O </c><c>   2</c></rc>
    <rc><c>O </c><c>   2</c></rc>
    <rc><c>O </c><c>   2</c></rc>
    <rc><c>O </c><c>   2</c></rc>
    <rc><c>O </c><c>   2</c></rc>
    <rc><c>O </c><c>   2</c></rc>
    <rc><c>O </c><c>   2</c></rc>
    <rc><c>O </c><c>   2</c></rc>
    <rc><c>O </c><c>   2</c></rc>
    <rc><c>O </c><c>   2</c></rc>
    <rc><c>O </c><c>   2</c></rc>
    <rc><c>O </c><c>   2</c></rc>
    <rc><c>O </c><c>   2</c></rc>
    <rc><c>O </c><c>   2</c></rc>
    <rc><c>O </c><c>   2</c></rc>
    <rc><c>O </c><c>   2</c></rc>
    <rc><c>S </c><c>   3</c></rc>
    <rc><c>S </c><c>   3</c></rc>
    <rc><c>S </c><c>   3</c></rc>
    <rc><c>S </c><c>   3</c></rc>
    <rc><c>S </c><c>   3</c></rc>
    <rc><c>S </c><c>   3</c></rc>
    <rc><c>S </c><c>   3</c></rc>
    <rc><c>S </c><c>   3</c></rc>
    <rc><c>S </c><c>   3</c></rc>
    <rc><c>S </c><c>   3</c></rc>
    <rc><c>S </c><c>   3</c></rc>
    <rc><c>S </c><c>   3</c></rc>
    <rc><c>S </c><c>   3</c></rc>
    <rc><c>S </c><c>   3</c></rc>
    <rc><c>S </c><c>   3</c></rc>
    <rc><c>S </c><c>   3</c></rc>
    <rc><c>S </c><c>   3</c></rc>
    <rc><c>S </c><c>   3</c></rc>
    <rc><c>S </c><c>   3</c></rc>
    <rc><c>S </c><c>   3</c></rc>
    <rc><c>S </c><c>   3</c></rc>
    <rc><c>S </c><c>   3</c></rc>
    <rc><c>S </c><c>   3</c></rc>
    <rc><c>S </c><c>   3</c></rc>
    <rc><c>Fe</c><c>   4</c></rc>
    <rc><c>Fe</c><c>   4</c></rc>
    <rc><c>Fe</c><c>   4</c></rc>
    <rc><c>Fe</c><c>   4</c></rc>
    <rc><c>Fe</c><c>   4</c></rc>
    <rc><c>Fe</c><c>   4</c></rc>
    <rc><c>Fe</c><c>   4</c></rc>
    <rc><c>Fe</c><c>   4</c></rc>
    <rc><c>Fe</c><c>   4</c></rc>
    <rc><c>Fe</c><c>   4</c></rc>
    <rc><c>Fe</c><c>   4</c></rc>
    <rc><c>Fe</c><c>   4</c></rc>
    <rc><c>Fe</c><c>   4</c></rc>
    <rc><c>Fe</c><c>   4</c></rc>
    <rc><c>Fe</c><c>   4</c></rc>
    <rc><c>Fe</c><c>   4</c></rc>
    <rc><c>Fe</c><c>   4</c></rc>
    <rc><c>Fe</c><c>   4</c></rc>
    <rc><c>Fe</c><c>   4</c></rc>
    <rc><c>Fe</c><c>   4</c></rc>
    <rc><c>Fe</c><c>   4</c></rc>
    <rc><c>Fe</c><c>   4</c></rc>
    <rc><c>Fe</c><c>   4</c></rc>
    <rc><c>Fe</c><c>   4</c></rc>
   </set>
  </array>
  <array name="atomtypes" >
   <dimension dim="1">type</dimension>
   <field type="int">atomspertype</field>
   <field type="string">element</field>
   <field>mass</field>
   <field>valence</field>
   <field type="string">pseudopotential</field>
   <set>
    <rc><c>  48</c><c>Li</c><c>      7.01000000</c><c>      3.00000000</c><c>  PAW_PBE Li_sv 10Sep2004               </c></rc>
    <rc><c>  24</c><c>O </c><c>     16.00000000</c><c>      6.00000000</c><c>  PAW_PBE O 08Apr2002                   </c></rc>
    <rc><c>  24</c><c>S </c><c>     32.06600000</c><c>      6.00000000</c><c>  PAW_PBE S 06Sep2000                   </c></rc>
    <rc><c>  24</c><c>Fe</c><c>     55.84700000</c><c>     14.00000000</c><c>  PAW_PBE Fe_pv 02Aug2007               </c></rc>
   </set>
  </array>
 </atominfo>
 <structure name="initialpos" >
  <crystal>
   <varray name="basis" >
    <v>      11.73572724      -0.05744286       0.00000000 </v>
    <v>       0.05480788      11.21833490       0.00000000 </v>
    <v>       0.00000000       0.00000000      11.19562010 </v>
   </varray>
   <i name="volume">   1473.99817718 </i>
   <varray name="rec_basis" >
    <v>       0.08520785      -0.00041629       0.00000000 </v>
    <v>       0.00043630       0.08913766       0.00000000 </v>
    <v>       0.00000000       0.00000000       0.08932064 </v>
   </varray>
  </crystal>
  <varray name="positions" >
   <v>       0.03541706       0.36277547       0.35648149 </v>
   <v>       0.36875039       0.36277547       0.35648149 </v>
   <v>       0.70208372       0.36277547       0.35648149 </v>
   <v>       0.03541706       0.86277547       0.35648149 </v>
   <v>       0.36875039       0.86277547       0.35648149 </v>
   <v>       0.70208372       0.86277547       0.35648149 </v>
   <v>       0.03541706       0.36277547       0.85648149 </v>
   <v>       0.36875039       0.36277547       0.85648149 </v>
   <v>       0.70208372       0.36277547       0.85648149 </v>
   <v>       0.03541706       0.86277547       0.85648149 </v>
   <v>       0.36875039       0.86277547       0.85648149 </v>
   <v>       0.70208372       0.86277547       0.85648149 </v>
   <v>       0.03541706       0.11277547       0.14351851 </v>
   <v>       0.36875039       0.11277547       0.14351851 </v>
   <v>       0.70208372       0.11277547       0.14351851 </v>
   <v>       0.03541706       0.61277547       0.14351851 </v>
   <v>       0.36875039       0.61277547       0.14351851 </v>
   <v>       0.70208372       0.61277547       0.14351851 </v>
   <v>       0.03541706       0.11277547       0.64351851 </v>
   <v>       0.36875039       0.11277547       0.64351851 </v>
   <v>       0.70208372       0.11277547       0.64351851 </v>
   <v>       0.03541706       0.61277547       0.64351851 </v>
   <v>       0.36875039       0.61277547       0.64351851 </v>
   <v>       0.70208372       0.61277547       0.64351851 </v>
   <v>       0.20209458       0.21898060       0.27246215 </v>
   <v>       0.53542792       0.21898060       0.27246215 </v>
   <v>       0.86876125       0.21898060       0.27246215 </v>
   <v>       0.20209458       0.71898060       0.27246215 </v>
   <v>       0.53542792       0.71898060       0.27246215 </v>
   <v>       0.86876125       0.71898060       0.27246215 </v>
   <v>       0.20209458       0.21898060       0.77246215 </v>
   <v>       0.53542792       0.21898060       0.77246215 </v>
   <v>       0.86876125       0.21898060       0.77246215 </v>
   <v>       0.20209458       0.71898060       0.77246215 </v>
   <v>       0.53542792       0.71898060       0.77246215 </v>
   <v>       0.86876125       0.71898060       0.77246215 </v>
   <v>       0.20209458       0.46898060       0.22753785 </v>
   <v>       0.53542792       0.46898060       0.22753785 </v>
   <v>       0.86876125       0.46898060       0.22753785 </v>
   <v>       0.20209458       0.96898060       0.22753785 </v>
   <v>       0.53542792       0.96898060       0.22753785 </v>
   <v>       0.86876125       0.96898060       0.22753785 </v>
   <v>       0.20209458       0.46898060       0.72753785 </v>
   <v>       0.53542792       0.46898060       0.72753785 </v>
   <v>       0.86876125       0.46898060       0.72753785 </v>
   <v>       0.20209458       0.96898060       0.72753785 </v>
   <v>       0.53542792       0.96898060       0.72753785 </v>
   <v>       0.86876125       0.96898060       0.72753785 </v>
   <v>       0.20209064       0.36858376       0.37376509 </v>
   <v>       0.53542398       0.36769237       0.37376509 </v>
   <v>       0.86875731       0.36769237       0.37376509 </v>
   <v>       0.20209064       0.86769237       0.37376509 </v>
   <v>       0.53542398       0.86769237       0.37376509 </v>
   <v>       0.86875731       0.86769237       0.37376509 </v>
   <v>       0.20209064       0.36769237       0.87376509 </v>
   <v>       0.53542398       0.36769237       0.87376509 </v>
   <v>       0.86875731       0.36769237       0.87376509 </v>
   <v>       0.20209064       0.86769237       0.87376509 </v>
   <v>       0.53542398       0.86769237       0.87376509 </v>
   <v>       0.86875731       0.86769237       0.87376509 </v>
   <v>       0.20209064       0.11769237       0.12623491 </v>
   <v>       0.53542398       0.11769237       0.12623491 </v>
   <v>       0.86875731       0.11769237       0.12623491 </v>
   <v>       0.20209064       0.61769237       0.12623491 </v>
   <v>       0.53542398       0.61769237       0.12623491 </v>
   <v>       0.86875731       0.61769237       0.12623491 </v>
   <v>       0.20209064       0.11769237       0.62623491 </v>
   <v>       0.53542398       0.11769237       0.62623491 </v>
   <v>       0.86875731       0.11769237       0.62623491 </v>
   <v>       0.20209064       0.61769237       0.62623491 </v>
   <v>       0.53542398       0.61769237       0.62623491 </v>
   <v>       0.86875731       0.61769237       0.62623491 </v>
   <v>       0.03542751       0.37011947       0.12029448 </v>
   <v>       0.36876084       0.37011947       0.12029448 </v>
   <v>       0.70209418       0.37011947       0.12029448 </v>
   <v>       0.03542751       0.87011947       0.12029448 </v>
   <v>       0.36876084       0.87011947       0.12029448 </v>
   <v>       0.70209418       0.87011947       0.12029448 </v>
   <v>       0.03542751       0.37011947       0.62029448 </v>
   <v>       0.36876084       0.37011947       0.62029448 </v>
   <v>       0.70209418       0.37011947       0.62029448 </v>
   <v>       0.03542751       0.87011947       0.62029448 </v>
   <v>       0.36876084       0.87011947       0.62029448 </v>
   <v>       0.70209418       0.87011947       0.62029448 </v>
   <v>       0.03542751       0.12011947       0.37970552 </v>
   <v>       0.36876084       0.12011947       0.37970552 </v>
   <v>       0.70209418       0.12011947       0.37970552 </v>
   <v>       0.03542751       0.62011947       0.37970552 </v>
   <v>       0.36876084       0.62011947       0.37970552 </v>
   <v>       0.70209418       0.62011947       0.37970552 </v>
   <v>       0.03542751       0.12011947       0.87970552 </v>
   <v>       0.36876084       0.12011947       0.87970552 </v>
   <v>       0.70209418       0.12011947       0.87970552 </v>
   <v>       0.03542751       0.62011947       0.87970552 </v>
   <v>       0.36876084       0.62011947       0.87970552 </v>
   <v>       0.70209418       0.62011947       0.87970552 </v>
   <v>       0.20209387       0.01225309       0.48003463 </v>
   <v>       0.53542720       0.01225309       0.48003463 </v>
   <v>       0.86876054       0.01225309       0.48003463 </v>
   <v>       0.20209387       0.51225309       0.48003463 </v>
   <v>       0.53542720       0.51225309       0.48003463 </v>
   <v>       0.86876054       0.51225309       0.48003463 </v>
   <v>       0.20209387       0.01225309       0.98003463 </v>
   <v>       0.53542720       0.01225309       0.98003463 </v>
   <v>       0.86876054       0.01225309       0.98003463 </v>
   <v>       0.20209387       0.51225309       0.98003463 </v>
   <v>       0.53542720       0.51225309       0.98003463 </v>
   <v>       0.86876054       0.51225309       0.98003463 </v>
   <v>       0.20209387       0.26225309       0.01996537 </v>
   <v>       0.53542720       0.26225309       0.01996537 </v>
   <v>       0.86876054       0.26225309       0.01996537 </v>
   <v>       0.20209387       0.76225309       0.01996537 </v>
   <v>       0.53542720       0.76225309       0.01996537 </v>
   <v>       0.86876054       0.76225309       0.01996537 </v>
   <v>       0.20209387       0.26225309       0.51996537 </v>
   <v>       0.53542720       0.26225309       0.51996537 </v>
   <v>       0.86876054       0.26225309       0.51996537 </v>
   <v>       0.20209387       0.76225309       0.51996537 </v>
   <v>       0.53542720       0.76225309       0.51996537 </v>
   <v>       0.86876054       0.76225309       0.51996537 </v>
  </varray>
 </structure>
 <calculation>
  <scstep>
   <time name="dav">  216.03  220.68</time>
   <time name="total">  217.99  222.66</time>
   <energy>
    <i name="alphaZ">   1915.67052055 </i>
    <i name="ewald"> -48531.92522276 </i>
    <i name="hartreedc"> -28983.60708217 </i>
    <i name="XCdc">   3297.26641027 </i>
    <i name="pawpsdc">  81710.32686745 </i>
    <i name="pawaedc"> -84426.12035439 </i>
    <i name="eentropy">     -0.01832393 </i>
    <i name="bandstr">   -670.17674231 </i>
    <i name="atom">  85731.96378919 </i>
    <i name="e_fr_energy">  10043.37986191 </i>
    <i name="e_wo_entrp">  10043.39818584 </i>
    <i name="e_0_energy">  10043.38902387 </i>
   </energy>
  </scstep>
  <scstep>
   <time name="dav">  209.29  213.36</time>
   <time name="total">  209.29  213.36</time>
   <energy>
    <i name="e_fr_energy">   1037.05047995 </i>
    <i name="e_wo_entrp">   1037.10264736 </i>
    <i name="e_0_energy">   1037.07656366 </i>
   </energy>
  </scstep>
  <scstep>
   <time name="dav">  228.82  232.33</time>
   <time name="total">  228.82  232.34</time>
   <energy>
    <i name="e_fr_energy">   -399.75594853 </i>
    <i name="e_wo_entrp">   -399.75594853 </i>
    <i name="e_0_energy">   -399.75594853 </i>
   </energy>
  </scstep>
  <scstep>
   <time name="dav">  261.83  267.62</time>
   <time name="total">  261.83  267.62</time>
   <energy>
    <i name="e_fr_energy">   -590.31639847 </i>
    <i name="e_wo_entrp">   -590.31639847 </i>
    <i name="e_0_energy">   -590.31639847 </i>
   </energy>
  </scstep>
  <scstep>
   <time name="dav">  326.78  333.36</time>
   <time name="total">  332.47  339.08</time>
   <energy>
    <i name="e_fr_energy">   -615.43814716 </i>
    <i name="e_wo_entrp">   -615.43814716 </i>
    <i name="e_0_energy">   -615.43814716 </i>
   </energy>
  </scstep>
  <scstep>
   <time name="dav">  266.13  271.07</time>
   <time name="total">  273.55  278.76</time>
   <energy>
    <i name="e_fr_energy">   -616.38643718 </i>
    <i name="e_wo_entrp">   -616.38643718 </i>
    <i name="e_0_energy">   -616.38643718 </i>
   </energy>
  </scstep>
  <scstep>
   <time name="dav">  302.03  307.44</time>
   <time name="total">  309.50  315.08</time>
   <energy>
    <i name="e_fr_energy">   -616.43507201 </i>
    <i name="e_wo_entrp">   -616.43507201 </i>
    <i name="e_0_energy">   -616.43507201 </i>
   </energy>
  </scstep>
  <scstep>
   <time name="dav">  291.12  296.91</time>
   <time name="total">  298.70  304.67</time>
   <energy>
    <i name="e_fr_energy">   -616.43527678 </i>
    <i name="e_wo_entrp">   -616.43527678 </i>
    <i name="e_0_energy">   -616.43527678 </i>
   </energy>
  </scstep>
  <scstep>
   <time name="dav">  300.94  306.99</time>
   <time name="total">  308.39  314.64</time>
   <energy>
    <i name="e_fr_energy">   -616.43452967 </i>
    <i name="e_wo_entrp">   -616.43452967 </i>
    <i name="e_0_energy">   -616.43452967 </i>
   </energy>
  </scstep>
  <scstep>
   <time name="dav">  320.93  327.38</time>
   <time name="total">  328.41  335.02</time>
   <energy>
    <i name="e_fr_energy">   -616.43344221 </i>
    <i name="e_wo_entrp">   -616.43344221 </i>
    <i name="e_0_energy">   -616.43344221 </i>
   </energy>
  </scstep>
  <scstep>
   <time name="dav">  328.66  332.84</time>
   <time name="total">  336.36  340.61</time>
   <energy>
    <i name="e_fr_energy">   -616.43194622 </i>
    <i name="e_wo_entrp">   -616.43194622 </i>
    <i name="e_0_energy">   -616.43194622 </i>
   </energy>
  </scstep>
  <scstep>
   <time name="dav">  273.58  275.92</time>
   <time name="total">  281.46  283.81</time>
   <energy>
    <i name="e_fr_energy">   -616.43195222 </i>
    <i name="e_wo_entrp">   -616.43195222 </i>
    <i name="e_0_energy">   -616.43195222 </i>
   </energy>
  </scstep>
  <scstep>
   <time name="dav">  283.96  286.24</time>
   <time name="total">  291.64  293.93</time>
   <energy>
    <i name="e_fr_energy">   -616.43196428 </i>
    <i name="e_wo_entrp">   -616.43196428 </i>
    <i name="e_0_energy">   -616.43196428 </i>
   </energy>
  </scstep>
  <scstep>
   <time name="dav">  199.46  201.25</time>
   <time name="total">  207.06  208.99</time>
   <energy>
    <i name="e_fr_energy">   -616.43197096 </i>
    <i name="e_wo_entrp">   -616.43197096 </i>
    <i name="e_0_energy">   -616.43197096 </i>
   </energy>
  </scstep>
  <scstep>
   <time name="dav">  241.58  243.79</time>
   <time name="total">  249.14  251.53</time>
   <energy>
    <i name="e_fr_energy">   -616.43198017 </i>
    <i name="e_wo_entrp">   -616.43198017 </i>
    <i name="e_0_energy">   -616.43198017 </i>
   </energy>
  </scstep>
  <scstep>
   <time name="dav">  224.53  226.43</time>
   <time name="total">  232.15  234.15</time>
   <energy>
    <i name="e_fr_energy">   -616.43198123 </i>
    <i name="e_wo_entrp">   -616.43198123 </i>
    <i name="e_0_energy">   -616.43198123 </i>
   </energy>
  </scstep>
  <scstep>
   <time name="dav">  149.00  150.39</time>
   <time name="total">  150.93  152.35</time>
   <energy>
    <i name="alphaZ">   1915.67052055 </i>
    <i name="ewald"> -48531.92522276 </i>
    <i name="hartreedc"> -28983.65665559 </i>
    <i name="XCdc">   3297.26678316 </i>
    <i name="pawpsdc">  81711.09611745 </i>
    <i name="pawaedc"> -84426.88569184 </i>
    <i name="eentropy">     -0.00000000 </i>
    <i name="bandstr"> -11329.96162198 </i>
    <i name="atom">  85731.96378919 </i>
    <i name="e_fr_energy">   -616.43198181 </i>
    <i name="e_wo_entrp">   -616.43198181 </i>
    <i name="e_0_energy">   -616.43198181 </i>
   </energy>
  </scstep>
  <structure>
   <crystal>
    <varray name="basis" >
     <v>      11.73572724      -0.05744286       0.00000000 </v>
     <v>       0.05480788      11.21833490       0.00000000 </v>
     <v>       0.00000000       0.00000000      11.19562010 </v>
    </varray>
    <i name="volume">   1473.99817718 </i>
    <varray name="rec_basis" >
     <v>       0.08520785      -0.00041629       0.00000000 </v>
     <v>       0.00043630       0.08913766       0.00000000 </v>
     <v>       0.00000000       0.00000000       0.08932064 </v>
    </varray>
   </crystal>
   <varray name="positions" >
    <v>       0.03541706       0.36277547       0.35648149 </v>
    <v>       0.36875039       0.36277547       0.35648149 </v>
    <v>       0.70208372       0.36277547       0.35648149 </v>
    <v>       0.03541706       0.86277547       0.35648149 </v>
    <v>       0.36875039       0.86277547       0.35648149 </v>
    <v>       0.70208372       0.86277547       0.35648149 </v>
    <v>       0.03541706       0.36277547       0.85648149 </v>
    <v>       0.36875039       0.36277547       0.85648149 </v>
    <v>       0.70208372       0.36277547       0.85648149 </v>
    <v>       0.03541706       0.86277547       0.85648149 </v>
    <v>       0.36875039       0.86277547       0.85648149 </v>
    <v>       0.70208372       0.86277547       0.85648149 </v>
    <v>       0.03541706       0.11277547       0.14351851 </v>
    <v>       0.36875039       0.11277547       0.14351851 </v>
    <v>       0.70208372       0.11277547       0.14351851 </v>
    <v>       0.03541706       0.61277547       0.14351851 </v>
    <v>       0.36875039       0.61277547       0.14351851 </v>
    <v>       0.70208372       0.61277547       0.14351851 </v>
    <v>       0.03541706       0.11277547       0.64351851 </v>
    <v>       0.36875039       0.11277547       0.64351851 </v>
    <v>       0.70208372       0.11277547       0.64351851 </v>
    <v>       0.03541706       0.61277547       0.64351851 </v>
    <v>       0.36875039       0.61277547       0.64351851 </v>
    <v>       0.70208372       0.61277547       0.64351851 </v>
    <v>       0.20209458       0.21898060       0.27246215 </v>
    <v>       0.53542792       0.21898060       0.27246215 </v>
    <v>       0.86876125       0.21898060       0.27246215 </v>
    <v>       0.20209458       0.71898060       0.27246215 </v>
    <v>       0.53542792       0.71898060       0.27246215 </v>
    <v>       0.86876125       0.71898060       0.27246215 </v>
    <v>       0.20209458       0.21898060       0.77246215 </v>
    <v>       0.53542792       0.21898060       0.77246215 </v>
    <v>       0.86876125       0.21898060       0.77246215 </v>
    <v>       0.20209458       0.71898060       0.77246215 </v>
    <v>       0.53542792       0.71898060       0.77246215 </v>
    <v>       0.86876125       0.71898060       0.77246215 </v>
    <v>       0.20209458       0.46898060       0.22753785 </v>
    <v>       0.53542792       0.46898060       0.22753785 </v>
    <v>       0.86876125       0.46898060       0.22753785 </v>
    <v>       0.20209458       0.96898060       0.22753785 </v>
    <v>       0.53542792       0.96898060       0.22753785 </v>
    <v>       0.86876125       0.96898060       0.22753785 </v>
    <v>       0.20209458       0.46898060       0.72753785 </v>
    <v>       0.53542792       0.46898060       0.72753785 </v>
    <v>       0.86876125       0.46898060       0.72753785 </v>
    <v>       0.20209458       0.96898060       0.72753785 </v>
    <v>       0.53542792       0.96898060       0.72753785 </v>
    <v>       0.86876125       0.96898060       0.72753785 </v>
    <v>       0.20209064       0.36858376       0.37376509 </v>
    <v>       0.53542398       0.36769237       0.37376509 </v>
    <v>       0.86875731       0.36769237       0.37376509 </v>
    <v>       0.20209064       0.86769237       0.37376509 </v>
    <v>       0.53542398       0.86769237       0.37376509 </v>
    <v>       0.86875731       0.86769237       0.37376509 </v>
    <v>       0.20209064       0.36769237       0.87376509 </v>
    <v>       0.53542398       0.36769237       0.87376509 </v>
    <v>       0.86875731       0.36769237       0.87376509 </v>
    <v>       0.20209064       0.86769237       0.87376509 </v>
    <v>       0.53542398       0.86769237       0.87376509 </v>
    <v>       0.86875731       0.86769237       0.87376509 </v>
    <v>       0.20209064       0.11769237       0.12623491 </v>
    <v>       0.53542398       0.11769237       0.12623491 </v>
    <v>       0.86875731       0.11769237       0.12623491 </v>
    <v>       0.20209064       0.61769237       0.12623491 </v>
    <v>       0.53542398       0.61769237       0.12623491 </v>
    <v>       0.86875731       0.61769237       0.12623491 </v>
    <v>       0.20209064       0.11769237       0.62623491 </v>
    <v>       0.53542398       0.11769237       0.62623491 </v>
    <v>       0.86875731       0.11769237       0.62623491 </v>
    <v>       0.20209064       0.61769237       0.62623491 </v>
    <v>       0.53542398       0.61769237       0.62623491 </v>
    <v>       0.86875731       0.61769237       0.62623491 </v>
    <v>       0.03542751       0.37011947       0.12029448 </v>
    <v>       0.36876084       0.37011947       0.12029448 </v>
    <v>       0.70209418       0.37011947       0.12029448 </v>
    <v>       0.03542751       0.87011947       0.12029448 </v>
    <v>       0.36876084       0.87011947       0.12029448 </v>
    <v>       0.70209418       0.87011947       0.12029448 </v>
    <v>       0.03542751       0.37011947       0.62029448 </v>
    <v>       0.36876084       0.37011947       0.62029448 </v>
    <v>       0.70209418       0.37011947       0.62029448 </v>
    <v>       0.03542751       0.87011947       0.62029448 </v>
    <v>       0.36876084       0.87011947       0.62029448 </v>
    <v>       0.70209418       0.87011947       0.62029448 </v>
    <v>       0.03542751       0.12011947       0.37970552 </v>
    <v>       0.36876084       0.12011947       0.37970552 </v>
    <v>       0.70209418       0.12011947       0.37970552 </v>
    <v>       0.03542751       0.62011947       0.37970552 </v>
    <v>       0.36876084       0.62011947       0.37970552 </v>
    <v>       0.70209418       0.62011947       0.37970552 </v>
    <v>       0.03542751       0.12011947       0.87970552 </v>
    <v>       0.36876084       0.12011947       0.87970552 </v>
    <v>       0.70209418       0.12011947       0.87970552 </v>
    <v>       0.03542751       0.62011947       0.87970552 </v>
    <v>       0.36876084       0.62011947       0.87970552 </v>
    <v>       0.70209418       0.62011947       0.87970552 </v>
    <v>       0.20209387       0.01225309       0.48003463 </v>
    <v>       0.53542720       0.01225309       0.48003463 </v>
    <v>       0.86876054       0.01225309       0.48003463 </v>
    <v>       0.20209387       0.51225309       0.48003463 </v>
    <v>       0.53542720       0.51225309       0.48003463 </v>
    <v>       0.86876054       0.51225309       0.48003463 </v>
    <v>       0.20209387       0.01225309       0.98003463 </v>
    <v>       0.53542720       0.01225309       0.98003463 </v>
    <v>       0.86876054       0.01225309       0.98003463 </v>
    <v>       0.20209387       0.51225309       0.98003463 </v>
    <v>       0.53542720       0.51225309       0.98003463 </v>
    <v>       0.86876054       0.51225309       0.98003463 </v>
    <v>       0.20209387       0.26225309       0.01996537 </v>
    <v>       0.53542720       0.26225309       0.01996537 </v>
    <v>       0.86876054       0.26225309       0.01996537 </v>
    <v>       0.20209387       0.76225309       0.01996537 </v>
    <v>       0.53542720       0.76225309       0.01996537 </v>
    <v>       0.86876054       0.76225309       0.01996537 </v>
    <v>       0.20209387       0.26225309       0.51996537 </v>
    <v>       0.53542720       0.26225309       0.51996537 </v>
    <v>       0.86876054       0.26225309       0.51996537 </v>
    <v>       0.20209387       0.76225309       0.51996537 </v>
    <v>       0.53542720       0.76225309       0.51996537 </v>
    <v>       0.86876054       0.76225309       0.51996537 </v>
   </varray>
  </structure>
  <varray name="forces" >
   <v>      -0.00004622       0.00586784      -0.00011464 </v>
   <v>       0.00225787       0.00586063      -0.00009683 </v>
   <v>      -0.00025174       0.00033388      -0.00006405 </v>
   <v>       0.00004420      -0.00265702      -0.00002613 </v>
   <v>       0.00207053      -0.00266985      -0.00001300 </v>
   <v>      -0.00025133      -0.00037164      -0.00010518 </v>
   <v>       0.00011359      -0.00008529      -0.00017605 </v>
   <v>       0.00202359      -0.00009409      -0.00016298 </v>
   <v>      -0.00024612       0.00003276      -0.00010956 </v>
   <v>       0.00010975      -0.00011349      -0.00014053 </v>
   <v>       0.00203065      -0.00012236      -0.00012782 </v>
   <v>      -0.00025008      -0.00009929      -0.00010645 </v>
   <v>      -0.00011322      -0.00018845      -0.00093949 </v>
   <v>       0.00225923      -0.00019491      -0.00096428 </v>
   <v>      -0.00026246      -0.00006177      -0.00005834 </v>
   <v>       0.00030588       0.00000213       0.00127093 </v>
   <v>       0.00183899       0.00000361       0.00126588 </v>
   <v>      -0.00024949      -0.00000207       0.00027157 </v>
   <v>      -0.00067118      -0.00020269       0.00099605 </v>
   <v>       0.00281083      -0.00021908       0.00098153 </v>
   <v>      -0.00024644      -0.00006087       0.00021880 </v>
   <v>       0.00095658       0.00005250      -0.00091248 </v>
   <v>       0.00117937       0.00005877      -0.00092578 </v>
   <v>      -0.00024893      -0.00001523      -0.00005730 </v>
   <v>      -0.00011803       0.00731823      -0.00004060 </v>
   <v>       0.00056283       0.00087609      -0.00054995 </v>
   <v>      -0.00095052       0.00087823      -0.00055813 </v>
   <v>      -0.00015703      -0.00123374       0.00077368 </v>
   <v>      -0.00128386      -0.00066069       0.00080748 </v>
   <v>       0.00088213      -0.00067311       0.00079913 </v>
   <v>      -0.00014691       0.00077992       0.00040200 </v>
   <v>      -0.00026459       0.00034740      -0.00006857 </v>
   <v>      -0.00012752       0.00034840      -0.00006043 </v>
   <v>      -0.00014975      -0.00049516      -0.00080550 </v>
   <v>      -0.00017650      -0.00010038      -0.00016827 </v>
   <v>      -0.00022109      -0.00009424      -0.00016124 </v>
   <v>      -0.00011692       0.00762374      -0.00333468 </v>
   <v>      -0.00054175       0.00075374       0.00054038 </v>
   <v>       0.00015416       0.00075456       0.00054899 </v>
   <v>      -0.00015082      -0.00093768      -0.00045476 </v>
   <v>       0.00040173      -0.00065538      -0.00055553 </v>
   <v>      -0.00081226      -0.00065259      -0.00054760 </v>
   <v>      -0.00014287       0.00095171      -0.00072381 </v>
   <v>      -0.00002406       0.00032945       0.00002470 </v>
   <v>      -0.00037533       0.00032213       0.00001397 </v>
   <v>      -0.00015032      -0.00075368       0.00053752 </v>
   <v>      -0.00022787      -0.00013119       0.00010686 </v>
   <v>      -0.00017879      -0.00011793       0.00009626 </v>
   <v>      -0.00051131      -0.10681713      -0.00266390 </v>
   <v>      -0.00015844      -0.00210926       0.00012115 </v>
   <v>      -0.00010499      -0.00216229       0.00010642 </v>
   <v>       0.00002639       0.00370863      -0.00019426 </v>
   <v>       0.00008641       0.00382156      -0.00003704 </v>
   <v>      -0.00029489       0.00377292      -0.00006793 </v>
   <v>       0.00000573      -0.00045596       0.00016060 </v>
   <v>      -0.00006443      -0.00016858       0.00026008 </v>
   <v>      -0.00018118      -0.00016538       0.00020128 </v>
   <v>       0.00001415       0.00032995       0.00008062 </v>
   <v>      -0.00001119       0.00019010       0.00014912 </v>
   <v>      -0.00023390       0.00019454       0.00007519 </v>
   <v>       0.00001191       0.00086936       0.00271456 </v>
   <v>      -0.00039718      -0.00011919       0.00082699 </v>
   <v>       0.00015384      -0.00016014       0.00086243 </v>
   <v>       0.00001384       0.00086847      -0.00214403 </v>
   <v>       0.00034446      -0.00013165      -0.00115861 </v>
   <v>      -0.00059066      -0.00016290      -0.00113422 </v>
   <v>       0.00002276       0.00271187      -0.00396035 </v>
   <v>      -0.00040979      -0.00027397      -0.00112565 </v>
   <v>       0.00016440      -0.00026461      -0.00104386 </v>
   <v>       0.00002550       0.00270991       0.00346328 </v>
   <v>       0.00044075      -0.00028193       0.00101253 </v>
   <v>      -0.00068704      -0.00025236       0.00108622 </v>
   <v>       0.00010683      -0.00189567       0.00029606 </v>
   <v>      -0.00046293      -0.00190055       0.00028987 </v>
   <v>      -0.00015984      -0.00037827      -0.00005781 </v>
   <v>      -0.00016201       0.00096063      -0.00003653 </v>
   <v>      -0.00017275       0.00094894      -0.00004195 </v>
   <v>      -0.00015584       0.00029620      -0.00002309 </v>
   <v>       0.00004796      -0.00396689       0.00005366 </v>
   <v>      -0.00042015      -0.00395768       0.00005621 </v>
   <v>      -0.00016287      -0.00063429      -0.00000271 </v>
   <v>      -0.00018168       0.00179984       0.00001655 </v>
   <v>      -0.00013443       0.00180211       0.00002003 </v>
   <v>      -0.00015494       0.00068023       0.00001741 </v>
   <v>       0.00733358       0.00779727      -0.00029488 </v>
   <v>      -0.00760134       0.00785569      -0.00028374 </v>
   <v>      -0.00015811      -0.00013453      -0.00002211 </v>
   <v>      -0.00830074       0.00813408       0.00003782 </v>
   <v>       0.00803580       0.00804582       0.00004219 </v>
   <v>      -0.00015850      -0.00003979       0.00000211 </v>
   <v>       0.00013626      -0.00008496      -0.00005757 </v>
   <v>      -0.00047264      -0.00008272      -0.00006011 </v>
   <v>      -0.00016273      -0.00003621       0.00005514 </v>
   <v>      -0.00045002      -0.00016730       0.00020777 </v>
   <v>       0.00011076      -0.00017099       0.00020694 </v>
   <v>      -0.00015917      -0.00009002       0.00006466 </v>
   <v>      -0.00009711      -0.00437907       0.00019136 </v>
   <v>       0.00167388      -0.00162152       0.00153148 </v>
   <v>      -0.00223006      -0.00161844       0.00151972 </v>
   <v>       0.00010530       0.03658272       0.02014442 </v>
   <v>      -0.00145909       0.00173577      -0.00091186 </v>
   <v>       0.00093845       0.00170444      -0.00093714 </v>
   <v>      -0.00007870      -0.00068219      -0.00048815 </v>
   <v>      -0.00021682      -0.00034100      -0.00012637 </v>
   <v>      -0.00032256      -0.00035293      -0.00010398 </v>
   <v>      -0.00007117       0.00071003       0.00058991 </v>
   <v>      -0.00009629       0.00056282       0.00011347 </v>
   <v>      -0.00043479       0.00055008       0.00013404 </v>
   <v>      -0.00007003       0.00076428      -0.00081577 </v>
   <v>      -0.00022476       0.00036988      -0.00021204 </v>
   <v>      -0.00031033       0.00035219      -0.00020745 </v>
   <v>      -0.00007665      -0.00064390       0.00033915 </v>
   <v>      -0.00025108      -0.00032978       0.00009679 </v>
   <v>      -0.00029019      -0.00035203       0.00011170 </v>
   <v>       0.00002695       0.02091122      -0.01441974 </v>
   <v>       0.00051728       0.00142184       0.00055515 </v>
   <v>      -0.00103951       0.00141633       0.00052092 </v>
   <v>      -0.00009474      -0.00349048       0.00014437 </v>
   <v>      -0.00157762      -0.00175782      -0.00116889 </v>
   <v>       0.00102612      -0.00177723      -0.00120344 </v>
  </varray>
  <varray name="stress" >
   <v>      -0.11163512       0.00488104       0.00026476 </v>
   <v>       0.00414872      -0.06731299       0.05511833 </v>
   <v>       0.00026463       0.05511717      -0.12286507 </v>
  </varray>
  <energy>
   <i name="e_fr_energy">   -616.43198181 </i>
   <i name="e_wo_entrp">   -616.43198181 </i>
   <i name="e_0_energy">     -0.00000000 </i>
  </energy>
  <time name="totalsc"> 4882.88 4956.94</time>
  <eigenvalues>
   <array>
    <dimension dim="1">band</dimension>
    <dimension dim="2">kpoint</dimension>
    <dimension dim="3">spin</dimension>
    <field>eigene</field>
    <field>occ</field>
    <set>
     <set comment="spin 1">
      <set comment="kpoint 1">
       <r>  -51.4853    1.0000 </r>
       <r>  -51.4821    1.0000 </r>
       <r>  -51.4821    1.0000 </r>
       <r>  -51.4820    1.0000 </r>
       <r>  -51.4820    1.0000 </r>
       <r>  -51.4820    1.0000 </r>
       <r>  -51.4706    1.0000 </r>
       <r>  -51.4665    1.0000 </r>
       <r>  -51.4664    1.0000 </r>
       <r>  -51.4664    1.0000 </r>
       <r>  -51.4664    1.0000 </r>
       <r>  -51.4664    1.0000 </r>
       <r>  -51.4664    1.0000 </r>
       <r>  -51.4664    1.0000 </r>
       <r>  -51.4663    1.0000 </r>
       <r>  -51.4662    1.0000 </r>
       <r>  -51.4662    1.0000 </r>
       <r>  -51.4614    1.0000 </r>
       <r>  -51.4509    1.0000 </r>
       <r>  -51.4508    1.0000 </r>
       <r>  -51.4508    1.0000 </r>
       <r>  -51.4507    1.0000 </r>
       <r>  -51.4507    1.0000 </r>
       <r>  -51.4444    1.0000 </r>
       <r>  -50.2089    1.0000 </r>
       <r>  -50.2019    1.0000 </r>
       <r>  -50.2016    1.0000 </r>
       <r>  -50.2016    1.0000 </r>
       <r>  -50.2015    1.0000 </r>
       <r>  -50.2010    1.0000 </r>
       <r>  -50.2009    1.0000 </r>
       <r>  -50.1991    1.0000 </r>
       <r>  -50.1989    1.0000 </r>
       <r>  -50.1989    1.0000 </r>
       <r>  -50.1988    1.0000 </r>
       <r>  -50.1988    1.0000 </r>
       <r>  -50.1986    1.0000 </r>
       <r>  -50.1983    1.0000 </r>
       <r>  -50.1982    1.0000 </r>
       <r>  -50.1982    1.0000 </r>
       <r>  -50.1979    1.0000 </r>
       <r>  -50.1962    1.0000 </r>
       <r>  -50.1961    1.0000 </r>
       <r>  -50.1961    1.0000 </r>
       <r>  -50.1956    1.0000 </r>
       <r>  -50.1955    1.0000 </r>
       <r>  -50.1952    1.0000 </r>
       <r>  -50.1852    1.0000 </r>
       <r>  -50.0091    1.0000 </r>
       <r>  -50.0069    1.0000 </r>
       <r>  -50.0069    1.0000 </r>
       <r>  -50.0068    1.0000 </r>
       <r>  -50.0068    1.0000 </r>
       <r>  -50.0068    1.0000 </r>
       <r>  -49.9942    1.0000 </r>
       <r>  -49.9907    1.0000 </r>
       <r>  -49.9907    1.0000 </r>
       <r>  -49.9906    1.0000 </r>
       <r>  -49.9906    1.0000 </r>
       <r>  -49.9906    1.0000 </r>
       <r>  -49.9906    1.0000 </r>
       <r>  -49.9905    1.0000 </r>
       <r>  -49.9905    1.0000 </r>
       <r>  -49.9904    1.0000 </r>
       <r>  -49.9904    1.0000 </r>
       <r>  -49.9863    1.0000 </r>
       <r>  -49.9741    1.0000 </r>
       <r>  -49.9741    1.0000 </r>
       <r>  -49.9740    1.0000 </r>
       <r>  -49.9740    1.0000 </r>
       <r>  -49.9739    1.0000 </r>
       <r>  -49.9699    1.0000 </r>
       <r>  -40.5311    1.0000 </r>
       <r>  -40.5237    1.0000 </r>
       <r>  -40.5229    1.0000 </r>
       <r>  -40.5212    1.0000 </r>
       <r>  -40.5211    1.0000 </r>
       <r>  -40.5211    1.0000 </r>
       <r>  -40.5167    1.0000 </r>
       <r>  -40.5145    1.0000 </r>
       <r>  -40.5143    1.0000 </r>
       <r>  -40.5141    1.0000 </r>
       <r>  -40.5135    1.0000 </r>
       <r>  -40.5131    1.0000 </r>
       <r>  -40.5131    1.0000 </r>
       <r>  -40.5129    1.0000 </r>
       <r>  -40.5128    1.0000 </r>
       <r>  -40.5128    1.0000 </r>
       <r>  -40.5126    1.0000 </r>
       <r>  -40.5096    1.0000 </r>
       <r>  -40.5050    1.0000 </r>
       <r>  -40.5047    1.0000 </r>
       <r>  -40.5047    1.0000 </r>
       <r>  -40.5046    1.0000 </r>
       <r>  -40.5045    1.0000 </r>
       <r>  -40.4998    1.0000 </r>
       <r>  -40.3067    1.0000 </r>
       <r>  -40.3066    1.0000 </r>
       <r>  -40.3066    1.0000 </r>
       <r>  -40.3064    1.0000 </r>
       <r>  -40.3063    1.0000 </r>
       <r>  -40.3059    1.0000 </r>
       <r>  -40.3057    1.0000 </r>
       <r>  -40.3054    1.0000 </r>
       <r>  -40.3052    1.0000 </r>
       <r>  -40.3052    1.0000 </r>
       <r>  -40.3051    1.0000 </r>
       <r>  -40.3051    1.0000 </r>
       <r>  -40.3050    1.0000 </r>
       <r>  -40.3050    1.0000 </r>
       <r>  -40.3048    1.0000 </r>
       <r>  -40.3047    1.0000 </r>
       <r>  -40.3047    1.0000 </r>
       <r>  -40.3047    1.0000 </r>
       <r>  -40.3045    1.0000 </r>
       <r>  -40.3043    1.0000 </r>
       <r>  -40.3043    1.0000 </r>
       <r>  -40.3037    1.0000 </r>
       <r>  -40.3034    1.0000 </r>
       <r>  -40.3030    1.0000 </r>
       <r>  -13.5429    1.0000 </r>
       <r>  -13.5425    1.0000 </r>
       <r>  -13.5126    1.0000 </r>
       <r>  -13.5120    1.0000 </r>
       <r>  -13.5118    1.0000 </r>
       <r>  -13.4892    1.0000 </r>
       <r>  -13.3756    1.0000 </r>
       <r>  -13.3744    1.0000 </r>
       <r>  -13.3744    1.0000 </r>
       <r>  -13.3743    1.0000 </r>
       <r>  -13.3736    1.0000 </r>
       <r>  -13.3731    1.0000 </r>
       <r>  -13.3730    1.0000 </r>
       <r>  -13.3728    1.0000 </r>
       <r>  -13.3409    1.0000 </r>
       <r>  -13.3404    1.0000 </r>
       <r>  -13.3373    1.0000 </r>
       <r>  -13.3367    1.0000 </r>
       <r>  -13.2387    1.0000 </r>
       <r>  -13.2385    1.0000 </r>
       <r>  -13.2020    1.0000 </r>
       <r>  -13.2018    1.0000 </r>
       <r>  -13.1976    1.0000 </r>
       <r>  -13.1651    1.0000 </r>
       <r>   -7.7341    1.0000 </r>
       <r>   -7.6692    1.0000 </r>
       <r>   -7.5821    1.0000 </r>
       <r>   -7.5820    1.0000 </r>
       <r>   -7.5403    1.0000 </r>
       <r>   -7.5401    1.0000 </r>
       <r>   -7.5300    1.0000 </r>
       <r>   -7.5299    1.0000 </r>
       <r>   -7.4081    1.0000 </r>
       <r>   -7.3741    1.0000 </r>
       <r>   -7.3739    1.0000 </r>
       <r>   -7.3513    1.0000 </r>
       <r>   -7.3513    1.0000 </r>
       <r>   -7.3512    1.0000 </r>
       <r>   -7.3511    1.0000 </r>
       <r>   -7.3425    1.0000 </r>
       <r>   -7.3425    1.0000 </r>
       <r>   -7.3424    1.0000 </r>
       <r>   -7.3424    1.0000 </r>
       <r>   -7.3143    1.0000 </r>
       <r>   -7.3142    1.0000 </r>
       <r>   -7.2336    1.0000 </r>
       <r>   -7.1157    1.0000 </r>
       <r>   -7.1156    1.0000 </r>
       <r>   -1.9250    1.0000 </r>
       <r>   -1.9146    1.0000 </r>
       <r>   -1.8866    1.0000 </r>
       <r>   -1.8449    1.0000 </r>
       <r>   -1.8446    1.0000 </r>
       <r>   -1.7995    1.0000 </r>
       <r>   -1.7993    1.0000 </r>
       <r>   -1.7919    1.0000 </r>
       <r>   -1.7913    1.0000 </r>
       <r>   -1.7913    1.0000 </r>
       <r>   -1.7779    1.0000 </r>
       <r>   -1.7777    1.0000 </r>
       <r>   -1.5323    1.0000 </r>
       <r>   -1.5319    1.0000 </r>
       <r>   -1.5147    1.0000 </r>
       <r>   -1.5145    1.0000 </r>
       <r>   -1.4881    1.0000 </r>
       <r>   -1.4874    1.0000 </r>
       <r>   -1.4874    1.0000 </r>
       <r>   -1.4873    1.0000 </r>
       <r>   -1.4735    1.0000 </r>
       <r>   -1.4730    1.0000 </r>
       <r>   -1.4730    1.0000 </r>
       <r>   -1.4729    1.0000 </r>
       <r>   -1.4341    1.0000 </r>
       <r>   -1.4338    1.0000 </r>
       <r>   -1.3246    1.0000 </r>
       <r>   -1.3243    1.0000 </r>
       <r>   -1.2050    1.0000 </r>
       <r>   -1.1836    1.0000 </r>
       <r>   -1.1562    1.0000 </r>
       <r>   -1.1560    1.0000 </r>
       <r>   -1.1558    1.0000 </r>
       <r>   -1.1558    1.0000 </r>
       <r>   -1.0796    1.0000 </r>
       <r>   -1.0794    1.0000 </r>
       <r>   -1.0580    1.0000 </r>
       <r>   -1.0578    1.0000 </r>
       <r>   -1.0578    1.0000 </r>
       <r>   -1.0576    1.0000 </r>
       <r>   -0.9973    1.0000 </r>
       <r>   -0.9973    1.0000 </r>
       <r>   -0.9794    1.0000 </r>
       <r>   -0.9793    1.0000 </r>
       <r>   -0.9378    1.0000 </r>
       <r>   -0.9376    1.0000 </r>
       <r>   -0.9375    1.0000 </r>
       <r>   -0.9373    1.0000 </r>
       <r>   -0.9173    1.0000 </r>
       <r>   -0.9173    1.0000 </r>
       <r>   -0.9172    1.0000 </r>
       <r>   -0.9167    1.0000 </r>
       <r>   -0.9074    1.0000 </r>
       <r>   -0.9073    1.0000 </r>
       <r>   -0.8208    1.0000 </r>
       <r>   -0.8206    1.0000 </r>
       <r>   -0.8182    1.0000 </r>
       <r>   -0.8179    1.0000 </r>
       <r>   -0.6976    1.0000 </r>
       <r>   -0.6675    1.0000 </r>
       <r>   -0.6387    1.0000 </r>
       <r>   -0.6021    1.0000 </r>
       <r>   -0.5696    1.0000 </r>
       <r>   -0.5060    1.0000 </r>
       <r>   -0.5052    1.0000 </r>
       <r>   -0.5052    1.0000 </r>
       <r>   -0.5044    1.0000 </r>
       <r>   -0.5043    1.0000 </r>
       <r>   -0.4619    1.0000 </r>
       <r>   -0.4615    1.0000 </r>
       <r>   -0.4588    1.0000 </r>
       <r>   -0.4584    1.0000 </r>
       <r>   -0.3993    1.0000 </r>
       <r>   -0.3990    1.0000 </r>
       <r>   -0.3985    1.0000 </r>
       <r>   -0.3982    1.0000 </r>
       <r>   -0.3975    1.0000 </r>
       <r>   -0.3970    1.0000 </r>
       <r>   -0.2861    1.0000 </r>
       <r>   -0.2852    1.0000 </r>
       <r>   -0.2820    1.0000 </r>
       <r>   -0.2820    1.0000 </r>
       <r>   -0.2798    1.0000 </r>
       <r>   -0.2786    1.0000 </r>
       <r>   -0.1795    1.0000 </r>
       <r>   -0.1758    1.0000 </r>
       <r>   -0.1462    1.0000 </r>
       <r>   -0.1462    1.0000 </r>
       <r>   -0.1327    1.0000 </r>
       <r>   -0.1315    1.0000 </r>
       <r>   -0.0907    1.0000 </r>
       <r>   -0.0906    1.0000 </r>
       <r>   -0.0017    1.0000 </r>
       <r>    0.0234    1.0000 </r>
       <r>    0.0858    1.0000 </r>
       <r>    0.0862    1.0000 </r>
       <r>    0.0920    1.0000 </r>
       <r>    0.0927    1.0000 </r>
       <r>    0.1628    1.0000 </r>
       <r>    0.2041    1.0000 </r>
       <r>    0.2045    1.0000 </r>
       <r>    0.2140    1.0000 </r>
       <r>    0.2148    1.0000 </r>
       <r>    0.2267    1.0000 </r>
       <r>    0.2274    1.0000 </r>
       <r>    0.2412    1.0000 </r>
       <r>    0.2632    1.0000 </r>
       <r>    0.2637    1.0000 </r>
       <r>    0.2782    1.0000 </r>
       <r>    0.2782    1.0000 </r>
       <r>    0.2790    1.0000 </r>
       <r>    0.2793    1.0000 </r>
       <r>    0.3583    1.0000 </r>
       <r>    0.3732    1.0000 </r>
       <r>    0.3736    1.0000 </r>
       <r>    0.3742    1.0000 </r>
       <r>    0.3746    1.0000 </r>
       <r>    0.4231    1.0000 </r>
       <r>    0.4233    1.0000 </r>
       <r>    0.4864    1.0000 </r>
       <r>    0.5400    1.0000 </r>
       <r>    0.5645    1.0000 </r>
       <r>    0.5646    1.0000 </r>
       <r>    0.6032    1.0000 </r>
       <r>    0.6034    1.0000 </r>
       <r>    0.6393    1.0000 </r>
       <r>    0.6878    1.0000 </r>
       <r>    0.6879    1.0000 </r>
       <r>    0.7936    1.0000 </r>
       <r>    0.7938    1.0000 </r>
       <r>    0.7968    1.0000 </r>
       <r>    0.7974    1.0000 </r>
       <r>    0.8225    1.0000 </r>
       <r>    0.8227    1.0000 </r>
       <r>    0.8235    1.0000 </r>
       <r>    0.8239    1.0000 </r>
       <r>    0.8429    1.0000 </r>
       <r>    0.8756    1.0000 </r>
       <r>    0.8757    1.0000 </r>
       <r>    0.8783    1.0000 </r>
       <r>    0.8791    1.0000 </r>
       <r>    0.9231    1.0000 </r>
       <r>    0.9234    1.0000 </r>
       <r>    0.9239    1.0000 </r>
       <r>    0.9244    1.0000 </r>
       <r>    0.9573    1.0000 </r>
       <r>    1.1227    1.0000 </r>
       <r>    1.1234    1.0000 </r>
       <r>    1.1637    1.0000 </r>
       <r>    1.1642    1.0000 </r>
       <r>    1.2473    1.0000 </r>
       <r>    1.2473    1.0000 </r>
       <r>    1.3192    1.0000 </r>
       <r>    1.3193    1.0000 </r>
       <r>    1.3725    1.0000 </r>
       <r>    1.4355    1.0000 </r>
       <r>    1.4357    1.0000 </r>
       <r>    1.4366    1.0000 </r>
       <r>    1.4369    1.0000 </r>
       <r>    1.4737    1.0000 </r>
       <r>    1.4746    1.0000 </r>
       <r>    1.4752    1.0000 </r>
       <r>    1.4761    1.0000 </r>
       <r>    1.5003    1.0000 </r>
       <r>    1.5605    1.0000 </r>
       <r>    1.5622    1.0000 </r>
       <r>    1.5985    1.0000 </r>
[...]
       <r>   -39.9634     0.1763   120.0000 </r>
       <r>   -39.7251     0.0000   120.0000 </r>
       <r>   -39.4869     0.0000   120.0000 </r>
       <r>   -39.2487     0.0000   120.0000 </r>
       <r>   -39.0104     0.0000   120.0000 </r>
       <r>   -38.7722     0.0000   120.0000 </r>
       <r>   -38.5340     0.0000   120.0000 </r>
       <r>   -38.2957     0.0000   120.0000 </r>
       <r>   -38.0575     0.0000   120.0000 </r>
       <r>   -37.8193     0.0000   120.0000 </r>
       <r>   -37.5810     0.0000   120.0000 </r>
       <r>   -37.3428     0.0000   120.0000 </r>
       <r>   -37.1046     0.0000   120.0000 </r>
       <r>   -36.8663     0.0000   120.0000 </r>
       <r>   -36.6281     0.0000   120.0000 </r>
       <r>   -36.3899     0.0000   120.0000 </r>
       <r>   -36.1516     0.0000   120.0000 </r>
       <r>   -35.9134     0.0000   120.0000 </r>
       <r>   -35.6751     0.0000   120.0000 </r>
       <r>   -35.4369     0.0000   120.0000 </r>
       <r>   -35.1987     0.0000   120.0000 </r>
       <r>   -34.9604     0.0000   120.0000 </r>
       <r>   -34.7222     0.0000   120.0000 </r>
       <r>   -34.4840     0.0000   120.0000 </r>
       <r>   -34.2457     0.0000   120.0000 </r>
       <r>   -34.0075     0.0000   120.0000 </r>
       <r>   -33.7693     0.0000   120.0000 </r>
       <r>   -33.5310     0.0000   120.0000 </r>
       <r>   -33.2928     0.0000   120.0000 </r>
       <r>   -33.0546     0.0000   120.0000 </r>
       <r>   -32.8163     0.0000   120.0000 </r>
       <r>   -32.5781     0.0000   120.0000 </r>
       <r>   -32.3399     0.0000   120.0000 </r>
       <r>   -32.1016     0.0000   120.0000 </r>
       <r>   -31.8634     0.0000   120.0000 </r>
       <r>   -31.6252     0.0000   120.0000 </r>
       <r>   -31.3869     0.0000   120.0000 </r>
       <r>   -31.1487     0.0000   120.0000 </r>
       <r>   -30.9104     0.0000   120.0000 </r>
       <r>   -30.6722     0.0000   120.0000 </r>
       <r>   -30.4340     0.0000   120.0000 </r>
       <r>   -30.1957     0.0000   120.0000 </r>
       <r>   -29.9575     0.0000   120.0000 </r>
       <r>   -29.7193     0.0000   120.0000 </r>
       <r>   -29.4810     0.0000   120.0000 </r>
       <r>   -29.2428     0.0000   120.0000 </r>
       <r>   -29.0046     0.0000   120.0000 </r>
       <r>   -28.7663     0.0000   120.0000 </r>
       <r>   -28.5281     0.0000   120.0000 </r>
       <r>   -28.2899     0.0000   120.0000 </r>
       <r>   -28.0516     0.0000   120.0000 </r>
       <r>   -27.8134     0.0000   120.0000 </r>
       <r>   -27.5752     0.0000   120.0000 </r>
       <r>   -27.3369     0.0000   120.0000 </r>
       <r>   -27.0987     0.0000   120.0000 </r>
       <r>   -26.8605     0.0000   120.0000 </r>
       <r>   -26.6222     0.0000   120.0000 </r>
       <r>   -26.3840     0.0000   120.0000 </r>
       <r>   -26.1457     0.0000   120.0000 </r>
       <r>   -25.9075     0.0000   120.0000 </r>
       <r>   -25.6693     0.0000   120.0000 </r>
       <r>   -25.4310     0.0000   120.0000 </r>
       <r>   -25.1928     0.0000   120.0000 </r>
       <r>   -24.9546     0.0000   120.0000 </r>
       <r>   -24.7163     0.0000   120.0000 </r>
       <r>   -24.4781     0.0000   120.0000 </r>
       <r>   -24.2399     0.0000   120.0000 </r>
       <r>   -24.0016     0.0000   120.0000 </r>
       <r>   -23.7634     0.0000   120.0000 </r>
       <r>   -23.5252     0.0000   120.0000 </r>
       <r>   -23.2869     0.0000   120.0000 </r>
       <r>   -23.0487     0.0000   120.0000 </r>
       <r>   -22.8105     0.0000   120.0000 </r>
       <r>   -22.5722     0.0000   120.0000 </r>
       <r>   -22.3340     0.0000   120.0000 </r>
       <r>   -22.0958     0.0000   120.0000 </r>
       <r>   -21.8575     0.0000   120.0000 </r>
       <r>   -21.6193     0.0000   120.0000 </r>
       <r>   -21.3811     0.0000   120.0000 </r>
       <r>   -21.1428     0.0000   120.0000 </r>
       <r>   -20.9046     0.0000   120.0000 </r>
       <r>   -20.6663     0.0000   120.0000 </r>
       <r>   -20.4281     0.0000   120.0000 </r>
       <r>   -20.1899     0.0000   120.0000 </r>
       <r>   -19.9516     0.0000   120.0000 </r>
       <r>   -19.7134     0.0000   120.0000 </r>
       <r>   -19.4752     0.0000   120.0000 </r>
       <r>   -19.2369     0.0000   120.0000 </r>
       <r>   -18.9987     0.0000   120.0000 </r>
       <r>   -18.7605     0.0000   120.0000 </r>
       <r>   -18.5222     0.0000   120.0000 </r>
       <r>   -18.2840     0.0000   120.0000 </r>
       <r>   -18.0458     0.0000   120.0000 </r>
       <r>   -17.8075     0.0000   120.0000 </r>
       <r>   -17.5693     0.0000   120.0000 </r>
       <r>   -17.3311     0.0000   120.0000 </r>
       <r>   -17.0928     0.0000   120.0000 </r>
       <r>   -16.8546     0.0000   120.0000 </r>
       <r>   -16.6164     0.0000   120.0000 </r>
       <r>   -16.3781     0.0000   120.0000 </r>
       <r>   -16.1399     0.0000   120.0000 </r>
       <r>   -15.9016     0.0000   120.0000 </r>
       <r>   -15.6634     0.0000   120.0000 </r>
       <r>   -15.4252     0.0000   120.0000 </r>
       <r>   -15.1869     0.0000   120.0000 </r>
       <r>   -14.9487     0.0000   120.0000 </r>
       <r>   -14.7105     0.0000   120.0000 </r>
       <r>   -14.4722     0.0000   120.0000 </r>
       <r>   -14.2340     0.0000   120.0000 </r>
       <r>   -13.9958     0.0000   120.0000 </r>
       <r>   -13.7575     0.0000   120.0000 </r>
       <r>   -13.5193     0.0000   120.0000 </r>
       <r>   -13.2811     0.3686   120.0878 </r>
       <r>   -13.0428    67.8144   136.2436 </r>
       <r>   -12.8046    32.5578   144.0000 </r>
       <r>   -12.5664     0.0000   144.0000 </r>
       <r>   -12.3281     0.0000   144.0000 </r>
       <r>   -12.0899     0.0000   144.0000 </r>
       <r>   -11.8517     0.0000   144.0000 </r>
       <r>   -11.6134     0.0000   144.0000 </r>
       <r>   -11.3752     0.0000   144.0000 </r>
       <r>   -11.1370     0.0000   144.0000 </r>
       <r>   -10.8987     0.0000   144.0000 </r>
       <r>   -10.6605     0.0000   144.0000 </r>
       <r>   -10.4222     0.0000   144.0000 </r>
       <r>   -10.1840     0.0000   144.0000 </r>
       <r>    -9.9458     0.0000   144.0000 </r>
       <r>    -9.7075     0.0000   144.0000 </r>
       <r>    -9.4693     0.0000   144.0000 </r>
       <r>    -9.2311     0.0000   144.0000 </r>
       <r>    -8.9928     0.0000   144.0000 </r>
       <r>    -8.7546     0.0000   144.0000 </r>
       <r>    -8.5164     0.0000   144.0000 </r>
       <r>    -8.2781     0.0000   144.0000 </r>
       <r>    -8.0399     0.0000   144.0000 </r>
       <r>    -7.8017     0.0000   144.0000 </r>
       <r>    -7.5634     0.1535   144.0366 </r>
       <r>    -7.3252    29.3808   151.0361 </r>
       <r>    -7.0870    49.3435   162.7914 </r>
       <r>    -6.8487    21.2572   167.8557 </r>
       <r>    -6.6105     0.6059   168.0000 </r>
       <r>    -6.3723     0.0000   168.0000 </r>
       <r>    -6.1340     0.0000   168.0000 </r>
       <r>    -5.8958     0.0000   168.0000 </r>
       <r>    -5.6575     0.0000   168.0000 </r>
       <r>    -5.4193     0.0000   168.0000 </r>
       <r>    -5.1811     0.0000   168.0000 </r>
       <r>    -4.9428     0.0000   168.0000 </r>
       <r>    -4.7046     0.0000   168.0000 </r>
       <r>    -4.4664     0.0000   168.0000 </r>
       <r>    -4.2281     0.0000   168.0000 </r>
       <r>    -3.9899     0.0000   168.0000 </r>
       <r>    -3.7517     0.0000   168.0000 </r>
       <r>    -3.5134     0.0000   168.0000 </r>
       <r>    -3.2752     0.0000   168.0000 </r>
       <r>    -3.0370     0.0000   168.0000 </r>
       <r>    -2.7987     0.0000   168.0000 </r>
       <r>    -2.5605     0.0000   168.0000 </r>
       <r>    -2.3223     0.0000   168.0000 </r>
       <r>    -2.0840     0.0000   168.0000 </r>
       <r>    -1.8458     0.0000   168.0000 </r>
       <r>    -1.6076     0.0000   168.0000 </r>
       <r>    -1.3693     0.0000   168.0000 </r>
       <r>    -1.1311     0.0000   168.0000 </r>
       <r>    -0.8928     0.0000   168.0000 </r>
       <r>    -0.6546     1.9244   168.4585 </r>
       <r>    -0.4164    17.5276   172.6341 </r>
       <r>    -0.1781    38.8380   181.8867 </r>
       <r>     0.0601    34.8065   190.1788 </r>
       <r>     0.2983    23.2369   195.7147 </r>
       <r>     0.5366    48.6717   207.3100 </r>
       <r>     0.7748    48.6818   218.9077 </r>
       <r>     1.0130    68.4873   235.2238 </r>
       <r>     1.2513    25.5009   241.2989 </r>
       <r>     1.4895    23.2309   246.8334 </r>
       <r>     1.7277    38.3357   255.9663 </r>
       <r>     1.9660    45.9321   266.9089 </r>
       <r>     2.2042    29.3175   273.8933 </r>
       <r>     2.4424    35.7243   282.4041 </r>
       <r>     2.6807    25.4226   288.4607 </r>
       <r>     2.9189    45.6942   299.3466 </r>
       <r>     3.1571    41.7496   309.2928 </r>
       <r>     3.3954    14.2256   312.6819 </r>
       <r>     3.6336    31.1459   320.1019 </r>
       <r>     3.8718    56.7861   333.6303 </r>
       <r>     4.1101     9.9467   336.0000 </r>
       <r>     4.3483     0.0000   336.0000 </r>
       <r>     4.5866     0.0000   336.0000 </r>
       <r>     4.8248     0.0000   336.0000 </r>
       <r>     5.0630     0.0000   336.0000 </r>
       <r>     5.3013     0.0000   336.0000 </r>
       <r>     5.5395     0.0000   336.0000 </r>
       <r>     5.7777     0.0000   336.0000 </r>
       <r>     6.0160     0.0049   336.0012 </r>
       <r>     6.2542     1.9517   336.4661 </r>
       <r>     6.4924    13.7088   339.7320 </r>
       <r>     6.7307    26.9726   346.1578 </r>
       <r>     6.9689    25.2977   352.1846 </r>
       <r>     7.2071    58.1472   366.0373 </r>
       <r>     7.4454    75.1825   383.9484 </r>
       <r>     7.6836    29.3160   390.9325 </r>
       <r>     7.9218    41.3506   400.7836 </r>
       <r>     8.1601    78.3705   419.4542 </r>
       <r>     8.3983    49.4488   431.2347 </r>
       <r>     8.6365     3.6319   432.0999 </r>
       <r>     8.8748     1.1756   432.3800 </r>
       <r>     9.1130     4.5070   433.4537 </r>
       <r>     9.3513    10.8368   436.0354 </r>
       <r>     9.5895    21.1426   441.0723 </r>
       <r>     9.8277    28.8447   447.9442 </r>
       <r>    10.0660    30.1473   455.1263 </r>
       <r>    10.3042    30.0301   462.2805 </r>
       <r>    10.5424    25.7636   468.4183 </r>
       <r>    10.7807    25.8667   474.5806 </r>
       <r>    11.0189    24.1797   480.3411 </r>
       <r>    11.2571    10.3847   482.8151 </r>
       <r>    11.4954    25.8980   488.9849 </r>
       <r>    11.7336    30.6830   496.2947 </r>
       <r>    11.9718    56.4183   509.7355 </r>
       <r>    12.2101    44.3686   520.3056 </r>
       <r>    12.4483    26.7287   526.6733 </r>
       <r>    12.6865    23.8180   532.3476 </r>
       <r>    12.9248    27.4442   538.8858 </r>
       <r>    13.1630    33.0047   546.7486 </r>
       <r>    13.4012    17.9977   551.0363 </r>
       <r>    13.6395     4.0450   552.0000 </r>
       <r>    13.8777     0.0000   552.0000 </r>
       <r>    14.1159     0.0000   552.0000 </r>
       <r>    14.3542     0.0000   552.0000 </r>
       <r>    14.5924     0.0000   552.0000 </r>
       <r>    14.8307     0.0000   552.0000 </r>
       <r>    15.0689     0.0000   552.0000 </r>
       <r>    15.3071     0.0000   552.0000 </r>
       <r>    15.5454     0.0000   552.0000 </r>
       <r>    15.7836     0.0000   552.0000 </r>
       <r>    16.0218     0.0000   552.0000 </r>
       <r>    16.2601     0.0000   552.0000 </r>
       <r>    16.4983     0.0000   552.0000 </r>
       <r>    16.7365     0.0000   552.0000 </r>
      </set>
     </set>
    </array>
   </total>
  </dos>
 </calculation>
 <structure name="finalpos" >
  <crystal>
   <varray name="basis" >
    <v>      11.73572724      -0.05744286       0.00000000 </v>
    <v>       0.05480788      11.21833490       0.00000000 </v>
    <v>       0.00000000       0.00000000      11.19562010 </v>
   </varray>
   <i name="volume">   1473.99817718 </i>
   <varray name="rec_basis" >
    <v>       0.08520785      -0.00041629       0.00000000 </v>
    <v>       0.00043630       0.08913766       0.00000000 </v>
    <v>       0.00000000       0.00000000       0.08932064 </v>
   </varray>
  </crystal>
  <varray name="positions" >
   <v>       0.03541706       0.36277547       0.35648149 </v>
   <v>       0.36875039       0.36277547       0.35648149 </v>
   <v>       0.70208372       0.36277547       0.35648149 </v>
   <v>       0.03541706       0.86277547       0.35648149 </v>
   <v>       0.36875039       0.86277547       0.35648149 </v>
   <v>       0.70208372       0.86277547       0.35648149 </v>
   <v>       0.03541706       0.36277547       0.85648149 </v>
   <v>       0.36875039       0.36277547       0.85648149 </v>
   <v>       0.70208372       0.36277547       0.85648149 </v>
   <v>       0.03541706       0.86277547       0.85648149 </v>
   <v>       0.36875039       0.86277547       0.85648149 </v>
   <v>       0.70208372       0.86277547       0.85648149 </v>
   <v>       0.03541706       0.11277547       0.14351851 </v>
   <v>       0.36875039       0.11277547       0.14351851 </v>
   <v>       0.70208372       0.11277547       0.14351851 </v>
   <v>       0.03541706       0.61277547       0.14351851 </v>
   <v>       0.36875039       0.61277547       0.14351851 </v>
   <v>       0.70208372       0.61277547       0.14351851 </v>
   <v>       0.03541706       0.11277547       0.64351851 </v>
   <v>       0.36875039       0.11277547       0.64351851 </v>
   <v>       0.70208372       0.11277547       0.64351851 </v>
   <v>       0.03541706       0.61277547       0.64351851 </v>
   <v>       0.36875039       0.61277547       0.64351851 </v>
   <v>       0.70208372       0.61277547       0.64351851 </v>
   <v>       0.20209458       0.21898060       0.27246215 </v>
   <v>       0.53542792       0.21898060       0.27246215 </v>
   <v>       0.86876125       0.21898060       0.27246215 </v>
   <v>       0.20209458       0.71898060       0.27246215 </v>
   <v>       0.53542792       0.71898060       0.27246215 </v>
   <v>       0.86876125       0.71898060       0.27246215 </v>
   <v>       0.20209458       0.21898060       0.77246215 </v>
   <v>       0.53542792       0.21898060       0.77246215 </v>
   <v>       0.86876125       0.21898060       0.77246215 </v>
   <v>       0.20209458       0.71898060       0.77246215 </v>
   <v>       0.53542792       0.71898060       0.77246215 </v>
   <v>       0.86876125       0.71898060       0.77246215 </v>
   <v>       0.20209458       0.46898060       0.22753785 </v>
   <v>       0.53542792       0.46898060       0.22753785 </v>
   <v>       0.86876125       0.46898060       0.22753785 </v>
   <v>       0.20209458       0.96898060       0.22753785 </v>
   <v>       0.53542792       0.96898060       0.22753785 </v>
   <v>       0.86876125       0.96898060       0.22753785 </v>
   <v>       0.20209458       0.46898060       0.72753785 </v>
   <v>       0.53542792       0.46898060       0.72753785 </v>
   <v>       0.86876125       0.46898060       0.72753785 </v>
   <v>       0.20209458       0.96898060       0.72753785 </v>
   <v>       0.53542792       0.96898060       0.72753785 </v>
   <v>       0.86876125       0.96898060       0.72753785 </v>
   <v>       0.20209064       0.36858376       0.37376509 </v>
   <v>       0.53542398       0.36769237       0.37376509 </v>
   <v>       0.86875731       0.36769237       0.37376509 </v>
   <v>       0.20209064       0.86769237       0.37376509 </v>
   <v>       0.53542398       0.86769237       0.37376509 </v>
   <v>       0.86875731       0.86769237       0.37376509 </v>
   <v>       0.20209064       0.36769237       0.87376509 </v>
   <v>       0.53542398       0.36769237       0.87376509 </v>
   <v>       0.86875731       0.36769237       0.87376509 </v>
   <v>       0.20209064       0.86769237       0.87376509 </v>
   <v>       0.53542398       0.86769237       0.87376509 </v>
   <v>       0.86875731       0.86769237       0.87376509 </v>
   <v>       0.20209064       0.11769237       0.12623491 </v>
   <v>       0.53542398       0.11769237       0.12623491 </v>
   <v>       0.86875731       0.11769237       0.12623491 </v>
   <v>       0.20209064       0.61769237       0.12623491 </v>
   <v>       0.53542398       0.61769237       0.12623491 </v>
   <v>       0.86875731       0.61769237       0.12623491 </v>
   <v>       0.20209064       0.11769237       0.62623491 </v>
   <v>       0.53542398       0.11769237       0.62623491 </v>
   <v>       0.86875731       0.11769237       0.62623491 </v>
   <v>       0.20209064       0.61769237       0.62623491 </v>
   <v>       0.53542398       0.61769237       0.62623491 </v>
   <v>       0.86875731       0.61769237       0.62623491 </v>
   <v>       0.03542751       0.37011947       0.12029448 </v>
   <v>       0.36876084       0.37011947       0.12029448 </v>
   <v>       0.70209418       0.37011947       0.12029448 </v>
   <v>       0.03542751       0.87011947       0.12029448 </v>
   <v>       0.36876084       0.87011947       0.12029448 </v>
   <v>       0.70209418       0.87011947       0.12029448 </v>
   <v>       0.03542751       0.37011947       0.62029448 </v>
   <v>       0.36876084       0.37011947       0.62029448 </v>
   <v>       0.70209418       0.37011947       0.62029448 </v>
   <v>       0.03542751       0.87011947       0.62029448 </v>
   <v>       0.36876084       0.87011947       0.62029448 </v>
   <v>       0.70209418       0.87011947       0.62029448 </v>
   <v>       0.03542751       0.12011947       0.37970552 </v>
   <v>       0.36876084       0.12011947       0.37970552 </v>
   <v>       0.70209418       0.12011947       0.37970552 </v>
   <v>       0.03542751       0.62011947       0.37970552 </v>
   <v>       0.36876084       0.62011947       0.37970552 </v>
   <v>       0.70209418       0.62011947       0.37970552 </v>
   <v>       0.03542751       0.12011947       0.87970552 </v>
   <v>       0.36876084       0.12011947       0.87970552 </v>
   <v>       0.70209418       0.12011947       0.87970552 </v>
   <v>       0.03542751       0.62011947       0.87970552 </v>
   <v>       0.36876084       0.62011947       0.87970552 </v>
   <v>       0.70209418       0.62011947       0.87970552 </v>
   <v>       0.20209387       0.01225309       0.48003463 </v>
   <v>       0.53542720       0.01225309       0.48003463 </v>
   <v>       0.86876054       0.01225309       0.48003463 </v>
   <v>       0.20209387       0.51225309       0.48003463 </v>
   <v>       0.53542720       0.51225309       0.48003463 </v>
   <v>       0.86876054       0.51225309       0.48003463 </v>
   <v>       0.20209387       0.01225309       0.98003463 </v>
   <v>       0.53542720       0.01225309       0.98003463 </v>
   <v>       0.86876054       0.01225309       0.98003463 </v>
   <v>       0.20209387       0.51225309       0.98003463 </v>
   <v>       0.53542720       0.51225309       0.98003463 </v>
   <v>       0.86876054       0.51225309       0.98003463 </v>
   <v>       0.20209387       0.26225309       0.01996537 </v>
   <v>       0.53542720       0.26225309       0.01996537 </v>
   <v>       0.86876054       0.26225309       0.01996537 </v>
   <v>       0.20209387       0.76225309       0.01996537 </v>
   <v>       0.53542720       0.76225309       0.01996537 </v>
   <v>       0.86876054       0.76225309       0.01996537 </v>
   <v>       0.20209387       0.26225309       0.51996537 </v>
   <v>       0.53542720       0.26225309       0.51996537 </v>
   <v>       0.86876054       0.26225309       0.51996537 </v>
   <v>       0.20209387       0.76225309       0.51996537 </v>
   <v>       0.53542720       0.76225309       0.51996537 </v>
   <v>       0.86876054       0.76225309       0.51996537 </v>
  </varray>
 </structure>
</modeling>
