 126 126   0   0
  0.1357194E+02  0.1157659E-08  0.1157660E-08  0.1387803E-08  0.5000000E-15
  1.000000000000000E-004
  CAR 
 unknown system                          
     17.61126085    -54.41569404  301      5.42670099      1.00000000
    -54.416  0.0000E+00  0.0000E+00  0.0000E+00  0.0000E+00
    -54.176  0.0000E+00  0.0000E+00  0.0000E+00  0.0000E+00
    -53.936  0.0000E+00  0.0000E+00  0.0000E+00  0.0000E+00
    -53.695  0.0000E+00  0.0000E+00  0.0000E+00  0.0000E+00
    -53.455  0.0000E+00  0.0000E+00  0.0000E+00  0.0000E+00
    -53.215  0.0000E+00  0.0000E+00  0.0000E+00  0.0000E+00
    -52.975  0.0000E+00  0.0000E+00  0.0000E+00  0.0000E+00
    -52.735  0.0000E+00  0.0000E+00  0.0000E+00  0.0000E+00
    -52.495  0.0000E+00  0.0000E+00  0.0000E+00  0.0000E+00
    -52.255  0.0000E+00  0.0000E+00  0.0000E+00  0.0000E+00
    -52.015  0.0000E+00  0.0000E+00  0.0000E+00  0.0000E+00
    -51.775  0.0000E+00  0.0000E+00  0.0000E+00  0.0000E+00
    -51.535  0.0000E+00  0.0000E+00  0.0000E+00  0.0000E+00
    -51.295  0.8607E-03  0.0000E+00  0.2067E-03  0.0000E+00
    -51.054  0.1487E+03  0.0000E+00  0.3570E+02  0.0000E+00
    -50.814  0.1229E+01  0.0000E+00  0.3600E+02  0.0000E+00
    -50.574  0.0000E+00  0.0000E+00  0.3600E+02  0.0000E+00
    -50.334  0.0000E+00  0.0000E+00  0.3600E+02  0.0000E+00
    -50.094  0.0000E+00  0.0000E+00  0.3600E+02  0.0000E+00
    -49.854  0.2065E-05  0.0000E+00  0.3600E+02  0.0000E+00
    -49.614  0.2598E+03  0.0000E+00  0.9837E+02  0.0000E+00
    -49.374  0.4012E+02  0.0000E+00  0.1080E+03  0.0000E+00
    -49.134  0.0000E+00  0.0000E+00  0.1080E+03  0.0000E+00
    -48.894  0.0000E+00  0.0000E+00  0.1080E+03  0.0000E+00
    -48.654  0.0000E+00  0.0000E+00  0.1080E+03  0.0000E+00
    -48.413  0.0000E+00  0.0000E+00  0.1080E+03  0.0000E+00
    -48.173  0.0000E+00  0.0000E+00  0.1080E+03  0.0000E+00
    -47.933  0.0000E+00  0.0000E+00  0.1080E+03  0.0000E+00
    -47.693  0.0000E+00  0.0000E+00  0.1080E+03  0.0000E+00
    -47.453  0.0000E+00  0.0000E+00  0.1080E+03  0.0000E+00
    -47.213  0.0000E+00  0.0000E+00  0.1080E+03  0.0000E+00
    -46.973  0.0000E+00  0.0000E+00  0.1080E+03  0.0000E+00
    -46.733  0.0000E+00  0.0000E+00  0.1080E+03  0.0000E+00
    -46.493  0.0000E+00  0.3484E+00  0.1080E+03  0.8364E-01
    -46.253  0.0000E+00  0.1496E+03  0.1080E+03  0.3600E+02
    -46.013  0.0000E+00  0.4687E+01  0.1080E+03  0.3712E+02
    -45.772  0.0000E+00  0.2952E+03  0.1080E+03  0.1080E+03
    -45.532  0.0000E+00  0.0000E+00  0.1080E+03  0.1080E+03
    -45.292  0.0000E+00  0.0000E+00  0.1080E+03  0.1080E+03
    -45.052  0.0000E+00  0.0000E+00  0.1080E+03  0.1080E+03
    -44.812  0.0000E+00  0.0000E+00  0.1080E+03  0.1080E+03
    -44.572  0.0000E+00  0.0000E+00  0.1080E+03  0.1080E+03
    -44.332  0.0000E+00  0.0000E+00  0.1080E+03  0.1080E+03
    -44.092  0.0000E+00  0.0000E+00  0.1080E+03  0.1080E+03
    -43.852  0.0000E+00  0.0000E+00  0.1080E+03  0.1080E+03
    -43.612  0.0000E+00  0.0000E+00  0.1080E+03  0.1080E+03
    -43.372  0.0000E+00  0.0000E+00  0.1080E+03  0.1080E+03
    -43.131  0.0000E+00  0.0000E+00  0.1080E+03  0.1080E+03
    -42.891  0.0000E+00  0.0000E+00  0.1080E+03  0.1080E+03
    -42.651  0.0000E+00  0.0000E+00  0.1080E+03  0.1080E+03
    -42.411  0.0000E+00  0.0000E+00  0.1080E+03  0.1080E+03
    -42.171  0.0000E+00  0.0000E+00  0.1080E+03  0.1080E+03
    -41.931  0.0000E+00  0.0000E+00  0.1080E+03  0.1080E+03
    -41.691  0.0000E+00  0.0000E+00  0.1080E+03  0.1080E+03
    -41.451  0.0000E+00  0.0000E+00  0.1080E+03  0.1080E+03
    -41.211  0.0000E+00  0.0000E+00  0.1080E+03  0.1080E+03
    -40.971  0.0000E+00  0.0000E+00  0.1080E+03  0.1080E+03
    -40.731  0.0000E+00  0.0000E+00  0.1080E+03  0.1080E+03
    -40.490  0.0000E+00  0.0000E+00  0.1080E+03  0.1080E+03
    -40.250  0.0000E+00  0.0000E+00  0.1080E+03  0.1080E+03
    -40.010  0.0000E+00  0.0000E+00  0.1080E+03  0.1080E+03
    -39.770  0.1679E-02  0.1550E-02  0.1080E+03  0.1080E+03
    -39.530  0.1476E+03  0.1475E+03  0.1434E+03  0.1434E+03
    -39.290  0.2320E+01  0.2404E+01  0.1440E+03  0.1440E+03
    -39.050  0.0000E+00  0.0000E+00  0.1440E+03  0.1440E+03
    -38.810  0.0000E+00  0.0000E+00  0.1440E+03  0.1440E+03
    -38.570  0.0000E+00  0.0000E+00  0.1440E+03  0.1440E+03
    -38.330  0.0000E+00  0.0000E+00  0.1440E+03  0.1440E+03
    -38.090  0.0000E+00  0.0000E+00  0.1440E+03  0.1440E+03
    -37.849  0.0000E+00  0.0000E+00  0.1440E+03  0.1440E+03
    -37.609  0.0000E+00  0.0000E+00  0.1440E+03  0.1440E+03
    -37.369  0.0000E+00  0.0000E+00  0.1440E+03  0.1440E+03
    -37.129  0.0000E+00  0.0000E+00  0.1440E+03  0.1440E+03
    -36.889  0.0000E+00  0.0000E+00  0.1440E+03  0.1440E+03
    -36.649  0.0000E+00  0.0000E+00  0.1440E+03  0.1440E+03
    -36.409  0.0000E+00  0.0000E+00  0.1440E+03  0.1440E+03
    -36.169  0.0000E+00  0.0000E+00  0.1440E+03  0.1440E+03
    -35.929  0.0000E+00  0.0000E+00  0.1440E+03  0.1440E+03
    -35.689  0.0000E+00  0.0000E+00  0.1440E+03  0.1440E+03
    -35.449  0.0000E+00  0.0000E+00  0.1440E+03  0.1440E+03
    -35.209  0.0000E+00  0.0000E+00  0.1440E+03  0.1440E+03
    -34.968  0.0000E+00  0.0000E+00  0.1440E+03  0.1440E+03
    -34.728  0.0000E+00  0.0000E+00  0.1440E+03  0.1440E+03
    -34.488  0.0000E+00  0.0000E+00  0.1440E+03  0.1440E+03
    -34.248  0.0000E+00  0.0000E+00  0.1440E+03  0.1440E+03
    -34.008  0.0000E+00  0.0000E+00  0.1440E+03  0.1440E+03
    -33.768  0.0000E+00  0.0000E+00  0.1440E+03  0.1440E+03
    -33.528  0.0000E+00  0.0000E+00  0.1440E+03  0.1440E+03
    -33.288  0.0000E+00  0.0000E+00  0.1440E+03  0.1440E+03
    -33.048  0.0000E+00  0.0000E+00  0.1440E+03  0.1440E+03
    -32.808  0.0000E+00  0.0000E+00  0.1440E+03  0.1440E+03
    -32.568  0.0000E+00  0.0000E+00  0.1440E+03  0.1440E+03
    -32.327  0.0000E+00  0.0000E+00  0.1440E+03  0.1440E+03
    -32.087  0.0000E+00  0.0000E+00  0.1440E+03  0.1440E+03
    -31.847  0.0000E+00  0.0000E+00  0.1440E+03  0.1440E+03
    -31.607  0.0000E+00  0.0000E+00  0.1440E+03  0.1440E+03
    -31.367  0.0000E+00  0.0000E+00  0.1440E+03  0.1440E+03
    -31.127  0.0000E+00  0.0000E+00  0.1440E+03  0.1440E+03
    -30.887  0.0000E+00  0.0000E+00  0.1440E+03  0.1440E+03
    -30.647  0.0000E+00  0.0000E+00  0.1440E+03  0.1440E+03
    -30.407  0.0000E+00  0.0000E+00  0.1440E+03  0.1440E+03
    -30.167  0.0000E+00  0.0000E+00  0.1440E+03  0.1440E+03
    -29.927  0.0000E+00  0.0000E+00  0.1440E+03  0.1440E+03
    -29.686  0.0000E+00  0.0000E+00  0.1440E+03  0.1440E+03
    -29.446  0.0000E+00  0.0000E+00  0.1440E+03  0.1440E+03
    -29.206  0.0000E+00  0.0000E+00  0.1440E+03  0.1440E+03
    -28.966  0.0000E+00  0.0000E+00  0.1440E+03  0.1440E+03
    -28.726  0.0000E+00  0.0000E+00  0.1440E+03  0.1440E+03
    -28.486  0.0000E+00  0.0000E+00  0.1440E+03  0.1440E+03
    -28.246  0.0000E+00  0.0000E+00  0.1440E+03  0.1440E+03
    -28.006  0.0000E+00  0.0000E+00  0.1440E+03  0.1440E+03
    -27.766  0.0000E+00  0.0000E+00  0.1440E+03  0.1440E+03
    -27.526  0.0000E+00  0.0000E+00  0.1440E+03  0.1440E+03
    -27.286  0.0000E+00  0.0000E+00  0.1440E+03  0.1440E+03
    -27.045  0.0000E+00  0.0000E+00  0.1440E+03  0.1440E+03
    -26.805  0.0000E+00  0.0000E+00  0.1440E+03  0.1440E+03
    -26.565  0.0000E+00  0.0000E+00  0.1440E+03  0.1440E+03
    -26.325  0.0000E+00  0.0000E+00  0.1440E+03  0.1440E+03
    -26.085  0.0000E+00  0.0000E+00  0.1440E+03  0.1440E+03
    -25.845  0.0000E+00  0.0000E+00  0.1440E+03  0.1440E+03
    -25.605  0.0000E+00  0.0000E+00  0.1440E+03  0.1440E+03
    -25.365  0.0000E+00  0.0000E+00  0.1440E+03  0.1440E+03
    -25.125  0.0000E+00  0.0000E+00  0.1440E+03  0.1440E+03
    -24.885  0.0000E+00  0.0000E+00  0.1440E+03  0.1440E+03
    -24.645  0.0000E+00  0.0000E+00  0.1440E+03  0.1440E+03
    -24.404  0.0000E+00  0.0000E+00  0.1440E+03  0.1440E+03
    -24.164  0.0000E+00  0.0000E+00  0.1440E+03  0.1440E+03
    -23.924  0.0000E+00  0.0000E+00  0.1440E+03  0.1440E+03
    -23.684  0.0000E+00  0.0000E+00  0.1440E+03  0.1440E+03
    -23.444  0.0000E+00  0.0000E+00  0.1440E+03  0.1440E+03
    -23.204  0.0000E+00  0.0000E+00  0.1440E+03  0.1440E+03
    -22.964  0.0000E+00  0.0000E+00  0.1440E+03  0.1440E+03
    -22.724  0.0000E+00  0.0000E+00  0.1440E+03  0.1440E+03
    -22.484  0.0000E+00  0.0000E+00  0.1440E+03  0.1440E+03
    -22.244  0.0000E+00  0.0000E+00  0.1440E+03  0.1440E+03
    -22.004  0.0000E+00  0.0000E+00  0.1440E+03  0.1440E+03
    -21.763  0.0000E+00  0.0000E+00  0.1440E+03  0.1440E+03
    -21.523  0.0000E+00  0.0000E+00  0.1440E+03  0.1440E+03
    -21.283  0.0000E+00  0.0000E+00  0.1440E+03  0.1440E+03
    -21.043  0.0000E+00  0.0000E+00  0.1440E+03  0.1440E+03
    -20.803  0.0000E+00  0.0000E+00  0.1440E+03  0.1440E+03
    -20.563  0.0000E+00  0.0000E+00  0.1440E+03  0.1440E+03
    -20.323  0.0000E+00  0.0000E+00  0.1440E+03  0.1440E+03
    -20.083  0.0000E+00  0.0000E+00  0.1440E+03  0.1440E+03
    -19.843  0.0000E+00  0.0000E+00  0.1440E+03  0.1440E+03
    -19.603  0.0000E+00  0.0000E+00  0.1440E+03  0.1440E+03
    -19.363  0.0000E+00  0.0000E+00  0.1440E+03  0.1440E+03
    -19.122  0.0000E+00  0.0000E+00  0.1440E+03  0.1440E+03
    -18.882  0.0000E+00  0.0000E+00  0.1440E+03  0.1440E+03
    -18.642  0.0000E+00  0.0000E+00  0.1440E+03  0.1440E+03
    -18.402  0.0000E+00  0.0000E+00  0.1440E+03  0.1440E+03
    -18.162  0.0000E+00  0.0000E+00  0.1440E+03  0.1440E+03
    -17.922  0.0000E+00  0.0000E+00  0.1440E+03  0.1440E+03
    -17.682  0.0000E+00  0.0000E+00  0.1440E+03  0.1440E+03
    -17.442  0.0000E+00  0.0000E+00  0.1440E+03  0.1440E+03
    -17.202  0.0000E+00  0.0000E+00  0.1440E+03  0.1440E+03
    -16.962  0.0000E+00  0.0000E+00  0.1440E+03  0.1440E+03
    -16.722  0.0000E+00  0.0000E+00  0.1440E+03  0.1440E+03
    -16.481  0.0000E+00  0.0000E+00  0.1440E+03  0.1440E+03
    -16.241  0.0000E+00  0.0000E+00  0.1440E+03  0.1440E+03
    -16.001  0.0000E+00  0.0000E+00  0.1440E+03  0.1440E+03
    -15.761  0.0000E+00  0.0000E+00  0.1440E+03  0.1440E+03
    -15.521  0.0000E+00  0.0000E+00  0.1440E+03  0.1440E+03
    -15.281  0.0000E+00  0.0000E+00  0.1440E+03  0.1440E+03
    -15.041  0.0000E+00  0.0000E+00  0.1440E+03  0.1440E+03
    -14.801  0.0000E+00  0.0000E+00  0.1440E+03  0.1440E+03
    -14.561  0.0000E+00  0.0000E+00  0.1440E+03  0.1440E+03
    -14.321  0.0000E+00  0.0000E+00  0.1440E+03  0.1440E+03
    -14.081  0.0000E+00  0.0000E+00  0.1440E+03  0.1440E+03
    -13.841  0.0000E+00  0.0000E+00  0.1440E+03  0.1440E+03
    -13.600  0.0000E+00  0.0000E+00  0.1440E+03  0.1440E+03
    -13.360  0.0000E+00  0.0000E+00  0.1440E+03  0.1440E+03
    -13.120  0.0000E+00  0.0000E+00  0.1440E+03  0.1440E+03
    -12.880  0.1688E-01  0.0000E+00  0.1440E+03  0.1440E+03
    -12.640  0.7243E+02  0.2666E-03  0.1614E+03  0.1440E+03
    -12.400  0.2524E+01  0.6188E+02  0.1620E+03  0.1589E+03
    -12.160  0.0000E+00  0.1309E+02  0.1620E+03  0.1620E+03
    -11.920  0.0000E+00  0.0000E+00  0.1620E+03  0.1620E+03
    -11.680  0.0000E+00  0.0000E+00  0.1620E+03  0.1620E+03
    -11.440  0.0000E+00  0.0000E+00  0.1620E+03  0.1620E+03
    -11.200  0.0000E+00  0.0000E+00  0.1620E+03  0.1620E+03
    -10.959  0.0000E+00  0.0000E+00  0.1620E+03  0.1620E+03
    -10.719  0.0000E+00  0.0000E+00  0.1620E+03  0.1620E+03
    -10.479  0.0000E+00  0.0000E+00  0.1620E+03  0.1620E+03
    -10.239  0.0000E+00  0.0000E+00  0.1620E+03  0.1620E+03
     -9.999  0.0000E+00  0.0000E+00  0.1620E+03  0.1620E+03
     -9.759  0.0000E+00  0.0000E+00  0.1620E+03  0.1620E+03
     -9.519  0.0000E+00  0.0000E+00  0.1620E+03  0.1620E+03
     -9.279  0.0000E+00  0.0000E+00  0.1620E+03  0.1620E+03
     -9.039  0.0000E+00  0.0000E+00  0.1620E+03  0.1620E+03
     -8.799  0.0000E+00  0.0000E+00  0.1620E+03  0.1620E+03
     -8.559  0.0000E+00  0.0000E+00  0.1620E+03  0.1620E+03
     -8.318  0.0000E+00  0.0000E+00  0.1620E+03  0.1620E+03
     -8.078  0.0000E+00  0.0000E+00  0.1620E+03  0.1620E+03
     -7.838  0.4539E-02  0.2826E-15  0.1620E+03  0.1620E+03
     -7.598  0.7655E+01  0.5931E-01  0.1638E+03  0.1620E+03
     -7.358  0.1413E+02  0.9355E+01  0.1672E+03  0.1643E+03
     -7.118  0.2403E+02  0.1681E+02  0.1730E+03  0.1683E+03
     -6.878  0.7257E+02  0.2399E+02  0.1904E+03  0.1741E+03
     -6.638  0.3155E+02  0.6864E+02  0.1980E+03  0.1905E+03
     -6.398  0.3506E-03  0.3107E+02  0.1980E+03  0.1980E+03
     -6.158  0.0000E+00  0.2153E-01  0.1980E+03  0.1980E+03
     -5.918  0.0000E+00  0.0000E+00  0.1980E+03  0.1980E+03
     -5.677  0.0000E+00  0.0000E+00  0.1980E+03  0.1980E+03
     -5.437  0.0000E+00  0.0000E+00  0.1980E+03  0.1980E+03
     -5.197  0.0000E+00  0.0000E+00  0.1980E+03  0.1980E+03
     -4.957  0.0000E+00  0.0000E+00  0.1980E+03  0.1980E+03
     -4.717  0.0000E+00  0.0000E+00  0.1980E+03  0.1980E+03
     -4.477  0.0000E+00  0.0000E+00  0.1980E+03  0.1980E+03
     -4.237  0.0000E+00  0.0000E+00  0.1980E+03  0.1980E+03
     -3.997  0.0000E+00  0.0000E+00  0.1980E+03  0.1980E+03
     -3.757  0.0000E+00  0.0000E+00  0.1980E+03  0.1980E+03
     -3.517  0.0000E+00  0.0000E+00  0.1980E+03  0.1980E+03
     -3.277  0.0000E+00  0.0000E+00  0.1980E+03  0.1980E+03
     -3.036  0.0000E+00  0.0000E+00  0.1980E+03  0.1980E+03
     -2.796  0.0000E+00  0.0000E+00  0.1980E+03  0.1980E+03
     -2.556  0.0000E+00  0.0000E+00  0.1980E+03  0.1980E+03
     -2.316  0.0000E+00  0.0000E+00  0.1980E+03  0.1980E+03
     -2.076  0.0000E+00  0.0000E+00  0.1980E+03  0.1980E+03
     -1.836  0.5138E-16  0.0000E+00  0.1980E+03  0.1980E+03
     -1.596  0.8545E-01  0.0000E+00  0.1980E+03  0.1980E+03
     -1.356  0.4388E+02  0.0000E+00  0.2086E+03  0.1980E+03
     -1.116  0.3101E+02  0.0000E+00  0.2160E+03  0.1980E+03
     -0.876  0.2629E+01  0.0000E+00  0.2166E+03  0.1980E+03
     -0.636  0.3825E+02  0.1059E-10  0.2258E+03  0.1980E+03
     -0.395  0.1042E+03  0.1038E+01  0.2508E+03  0.1982E+03
     -0.155  0.1196E+03  0.1236E+02  0.2795E+03  0.2012E+03
      0.085  0.1064E+03  0.1961E+02  0.3051E+03  0.2059E+03
      0.325  0.8741E+02  0.2720E+02  0.3261E+03  0.2125E+03
      0.565  0.7799E+02  0.3012E+02  0.3448E+03  0.2197E+03
      0.805  0.3558E+02  0.3867E+02  0.3533E+03  0.2290E+03
      1.045  0.2979E+02  0.3492E+02  0.3605E+03  0.2374E+03
      1.285  0.5009E+02  0.4714E+02  0.3725E+03  0.2487E+03
      1.525  0.3156E+02  0.3080E+02  0.3801E+03  0.2561E+03
      1.765  0.5553E+02  0.6042E+02  0.3934E+03  0.2706E+03
      2.005  0.1227E+03  0.4866E+02  0.4229E+03  0.2823E+03
      2.246  0.8066E+02  0.1871E+02  0.4422E+03  0.2867E+03
      2.486  0.5371E+02  0.2946E+02  0.4551E+03  0.2938E+03
      2.726  0.3974E+02  0.5968E+02  0.4647E+03  0.3082E+03
      2.966  0.2601E+02  0.5072E+02  0.4709E+03  0.3203E+03
      3.206  0.1579E+02  0.5493E+02  0.4747E+03  0.3335E+03
      3.446  0.2681E+02  0.7529E+02  0.4812E+03  0.3516E+03
      3.686  0.4074E+02  0.2854E+02  0.4909E+03  0.3584E+03
      3.926  0.4214E+02  0.1880E+02  0.5011E+03  0.3630E+03
      4.166  0.4497E+02  0.9029E+02  0.5119E+03  0.3846E+03
      4.406  0.4573E+02  0.4526E+02  0.5228E+03  0.3955E+03
      4.646  0.2509E+02  0.2071E+01  0.5289E+03  0.3960E+03
      4.886  0.2753E+02  0.8093E-05  0.5355E+03  0.3960E+03
      5.127  0.1883E+02  0.0000E+00  0.5400E+03  0.3960E+03
      5.367  0.6665E-01  0.0000E+00  0.5400E+03  0.3960E+03
      5.607  0.0000E+00  0.0000E+00  0.5400E+03  0.3960E+03
      5.847  0.0000E+00  0.0000E+00  0.5400E+03  0.3960E+03
      6.087  0.0000E+00  0.3956E-14  0.5400E+03  0.3960E+03
      6.327  0.0000E+00  0.1139E+00  0.5400E+03  0.3960E+03
      6.567  0.0000E+00  0.4182E+01  0.5400E+03  0.3970E+03
      6.807  0.0000E+00  0.1322E+02  0.5400E+03  0.4002E+03
      7.047  0.0000E+00  0.2916E+02  0.5400E+03  0.4072E+03
      7.287  0.1824E-05  0.5502E+02  0.5400E+03  0.4204E+03
      7.527  0.4531E+00  0.7952E+02  0.5401E+03  0.4395E+03
      7.768  0.2281E+01  0.6878E+02  0.5407E+03  0.4560E+03
      8.008  0.1501E+01  0.8068E+02  0.5410E+03  0.4754E+03
      8.248  0.7059E+01  0.1003E+03  0.5427E+03  0.4995E+03
      8.488  0.7786E+01  0.4073E+02  0.5446E+03  0.5093E+03
      8.728  0.4745E+01  0.4344E+02  0.5457E+03  0.5197E+03
      8.968  0.1082E+02  0.4120E+02  0.5483E+03  0.5296E+03
      9.208  0.2021E+02  0.3984E+02  0.5532E+03  0.5392E+03
      9.448  0.2032E+02  0.1524E+02  0.5580E+03  0.5428E+03
      9.688  0.3043E+02  0.1630E+02  0.5654E+03  0.5467E+03
      9.928  0.2801E+02  0.1304E+02  0.5721E+03  0.5499E+03
     10.168  0.1774E+02  0.2411E+02  0.5763E+03  0.5556E+03
     10.409  0.1459E+02  0.2349E+02  0.5798E+03  0.5613E+03
     10.649  0.1857E+02  0.2673E+02  0.5843E+03  0.5677E+03
     10.889  0.2349E+02  0.2536E+02  0.5899E+03  0.5738E+03
     11.129  0.2814E+02  0.2545E+02  0.5967E+03  0.5799E+03
     11.369  0.2976E+02  0.1963E+02  0.6038E+03  0.5846E+03
     11.609  0.3021E+02  0.2466E+02  0.6111E+03  0.5905E+03
     11.849  0.2959E+02  0.2637E+02  0.6182E+03  0.5969E+03
     12.089  0.4118E+02  0.2693E+02  0.6281E+03  0.6033E+03
     12.329  0.5060E+02  0.3635E+02  0.6402E+03  0.6121E+03
     12.569  0.2645E+02  0.3730E+02  0.6466E+03  0.6210E+03
     12.809  0.2687E+02  0.4692E+02  0.6530E+03  0.6323E+03
     13.050  0.3268E+02  0.3603E+02  0.6609E+03  0.6409E+03
     13.290  0.3709E+02  0.2902E+02  0.6698E+03  0.6479E+03
     13.530  0.2522E+02  0.4885E+02  0.6758E+03  0.6596E+03
     13.770  0.1272E+02  0.3922E+02  0.6789E+03  0.6690E+03
     14.010  0.4599E+01  0.2133E+02  0.6800E+03  0.6742E+03
     14.250  0.4924E-02  0.1808E+02  0.6800E+03  0.6785E+03
     14.490  0.0000E+00  0.6235E+01  0.6800E+03  0.6800E+03
     14.730  0.0000E+00  0.9896E-05  0.6800E+03  0.6800E+03
     14.970  0.0000E+00  0.0000E+00  0.6800E+03  0.6800E+03
     15.210  0.0000E+00  0.0000E+00  0.6800E+03  0.6800E+03
     15.450  0.0000E+00  0.0000E+00  0.6800E+03  0.6800E+03
     15.691  0.0000E+00  0.0000E+00  0.6800E+03  0.6800E+03
     15.931  0.0000E+00  0.0000E+00  0.6800E+03  0.6800E+03
     16.171  0.0000E+00  0.0000E+00  0.6800E+03  0.6800E+03
     16.411  0.0000E+00  0.0000E+00  0.6800E+03  0.6800E+03
     16.651  0.0000E+00  0.0000E+00  0.6800E+03  0.6800E+03
     16.891  0.0000E+00  0.0000E+00  0.6800E+03  0.6800E+03
     17.131  0.0000E+00  0.0000E+00  0.6800E+03  0.6800E+03
     17.371  0.0000E+00  0.0000E+00  0.6800E+03  0.6800E+03
     17.611  0.0000E+00  0.0000E+00  0.6800E+03  0.6800E+03
