 vasp.5.4.4.18Apr17-6-g9f103f2a35 (build Oct 25 2017 14:42:18) complex          
  
 executed on             LinuxIFC date 2021.04.17  04:36:02
 running on   48 total cores
 distrk:  each k-point on   24 cores,    2 groups
 distr:  one band on NCORES_PER_BAND=   6 cores,    4 groups


--------------------------------------------------------------------------------------------------------


 INCAR:
 POTCAR:    PAW_PBE Li_sv 10Sep2004               
 POTCAR:    PAW_PBE O 08Apr2002                   
 POTCAR:    PAW_PBE S 06Sep2000                   
 POTCAR:    PAW_PBE Fe_pv 02Aug2007               

 ----------------------------------------------------------------------------- 
|                                                                             |
|           W    W    AA    RRRRR   N    N  II  N    N   GGGG   !!!           |
|           W    W   A  A   R    R  NN   N  II  NN   N  G    G  !!!           |
|           W    W  A    A  R    R  N N  N  II  N N  N  G       !!!           |
|           W WW W  AAAAAA  RRRRR   N  N N  II  N  N N  G  GGG   !            |
|           WW  WW  A    A  R   R   N   NN  II  N   NN  G    G                |
|           W    W  A    A  R    R  N    N  II  N    N   GGGG   !!!           |
|                                                                             |
|      You have enabled k-point parallelism (KPAR>1).                         |
|      This developmental code was originally  written by Paul Kent at ORNL,  |
|      and carefully double checked in Vienna.                                |
|      GW as well as linear response parallelism added by Martijn Marsman     |
|      and Georg Kresse.                                                      |
|      Carefully verify results versus KPAR=1.                                |
|      Report problems to Paul Kent and Vienna.                               |
|                                                                             |
 ----------------------------------------------------------------------------- 

 POTCAR:    PAW_PBE Li_sv 10Sep2004               
  local pseudopotential read in
  atomic valenz-charges read in
  non local Contribution for L=           0  read in
    real space projection operators read in
  non local Contribution for L=           0  read in
    real space projection operators read in
  non local Contribution for L=           1  read in
    real space projection operators read in
    PAW grid and wavefunctions read in
 
   number of l-projection  operators is LMAX  =           3
   number of lm-projection operators is LMMAX =           5
 
 POTCAR:    PAW_PBE O 08Apr2002                   
  local pseudopotential read in
  partial core-charges read in
  partial kinetic energy density read in
  kinetic energy density of atom read in
  atomic valenz-charges read in
  non local Contribution for L=           0  read in
    real space projection operators read in
  non local Contribution for L=           0  read in
    real space projection operators read in
  non local Contribution for L=           1  read in
    real space projection operators read in
  non local Contribution for L=           1  read in
    real space projection operators read in
    PAW grid and wavefunctions read in
 
   number of l-projection  operators is LMAX  =           4
   number of lm-projection operators is LMMAX =           8
 
 POTCAR:    PAW_PBE S 06Sep2000                   
  local pseudopotential read in
  partial core-charges read in
  partial kinetic energy density read in
  atomic valenz-charges read in
  non local Contribution for L=           0  read in
    real space projection operators read in
  non local Contribution for L=           0  read in
    real space projection operators read in
  non local Contribution for L=           1  read in
    real space projection operators read in
  non local Contribution for L=           1  read in
    real space projection operators read in
    PAW grid and wavefunctions read in
 
   number of l-projection  operators is LMAX  =           4
   number of lm-projection operators is LMMAX =           8
 
 POTCAR:    PAW_PBE Fe_pv 02Aug2007               
  local pseudopotential read in
  partial core-charges read in
  partial kinetic energy density read in
  atomic valenz-charges read in
  non local Contribution for L=           1  read in
    real space projection operators read in
  non local Contribution for L=           1  read in
    real space projection operators read in
  non local Contribution for L=           2  read in
    real space projection operators read in
  non local Contribution for L=           2  read in
    real space projection operators read in
  non local Contribution for L=           0  read in
    real space projection operators read in
  non local Contribution for L=           0  read in
    real space projection operators read in
    PAW grid and wavefunctions read in
 
   number of l-projection  operators is LMAX  =           6
   number of lm-projection operators is LMMAX =          18
 

 ----------------------------------------------------------------------------- 
|                                                                             |
|  ADVICE TO THIS USER RUNNING 'VASP/VAMP'   (HEAR YOUR MASTER'S VOICE ...):  |
|                                                                             |
|      You have a (more or less) 'large supercell' and for larger cells       |
|      it might be more efficient to use real space projection opertators     |
|      So try LREAL= Auto  in the INCAR   file.                               |
|      Mind:          For very  accurate calculation you might also keep the  |
|      reciprocal projection scheme          (i.e. LREAL=.FALSE.)             |
|                                                                             |
 ----------------------------------------------------------------------------- 

  PAW_PBE Li_sv 10Sep2004               :
 energy of atom  1       EATOM= -202.7858
 kinetic energy error for atom=    0.0072 (will be added to EATOM!!)
  PAW_PBE O 08Apr2002                   :
 energy of atom  2       EATOM= -432.3788
 kinetic energy error for atom=    0.0129 (will be added to EATOM!!)
  PAW_PBE S 06Sep2000                   :
 energy of atom  3       EATOM= -276.8230
 kinetic energy error for atom=    0.0008 (will be added to EATOM!!)
  PAW_PBE Fe_pv 02Aug2007               :
 energy of atom  4       EATOM=-2457.4239
 kinetic energy error for atom=    0.0041 (will be added to EATOM!!)
 
 
 POSCAR: # Compound: Li36O18S36Fe36. Old comment:
  positions in direct lattice
  No initial velocities read in
 exchange correlation table for  LEXCH =        8
   RHO(1)=    0.500       N(1)  =     2000
   RHO(2)=  100.500       N(2)  =     4000
 


--------------------------------------------------------------------------------------------------------


 ion  position               nearest neighbor table
   1  0.149  0.017  0.000-  37 1.93  39 1.93
   2  0.483  0.017  0.000-  38 1.93  37 1.93
   3  0.816  0.017  0.000-  39 1.93  38 1.93
   4  0.149  0.351  0.000-  40 1.93  42 1.93
   5  0.483  0.351  0.000-  41 1.93  40 1.93
   6  0.816  0.351  0.000-  42 1.93  41 1.93
   7  0.149  0.684  0.000-  43 1.93  45 1.93
   8  0.483  0.684  0.000-  44 1.93  43 1.93
   9  0.816  0.684  0.000-  45 1.93  44 1.93
  10  0.149  0.017  0.500-  46 1.93  48 1.93
  11  0.483  0.017  0.500-  47 1.93  46 1.93
  12  0.816  0.017  0.500-  48 1.93  47 1.93
  13  0.149  0.351  0.500-  49 1.93  51 1.93
  14  0.483  0.351  0.500-  50 1.93  49 1.93
  15  0.816  0.351  0.500-  51 1.93  50 1.93
  16  0.149  0.684  0.500-  52 1.93  54 1.93
  17  0.483  0.684  0.500-  53 1.93  52 1.93
  18  0.816  0.684  0.500-  54 1.93  53 1.93
  19  0.316  0.184  0.500-  46 1.93  49 1.93
  20  0.649  0.184  0.500-  47 1.93  50 1.93
  21  0.983  0.184  0.500-  48 1.93  51 1.93
  22  0.316  0.517  0.500-  49 1.93  52 1.93
  23  0.649  0.517  0.500-  50 1.93  53 1.93
  24  0.983  0.517  0.500-  51 1.93  54 1.93
  25  0.316  0.851  0.500-  52 1.93  46 1.93
  26  0.649  0.851  0.500-  53 1.93  47 1.93
  27  0.983  0.851  0.500-  54 1.93  48 1.93
  28  0.316  0.184  1.000-  37 1.93  40 1.93
  29  0.649  0.184  1.000-  38 1.93  41 1.93
  30  0.983  0.184  1.000-  39 1.93  42 1.93
  31  0.316  0.517  1.000-  40 1.93  43 1.93
  32  0.649  0.517  1.000-  41 1.93  44 1.93
  33  0.983  0.517  1.000-  42 1.93  45 1.93
  34  0.316  0.851  1.000-  43 1.93  37 1.93
  35  0.649  0.851  1.000-  44 1.93  38 1.93
  36  0.983  0.851  1.000-  45 1.93  39 1.93
  37  0.316  0.017  0.000-  28 1.93   1 1.93   2 1.93  34 1.93  92 2.04 124 2.04
  38  0.649  0.017  0.000-  29 1.93   2 1.93   3 1.93  35 1.93  93 2.04 125 2.04
  39  0.983  0.017  0.000-  30 1.93   3 1.93   1 1.93  36 1.93 126 2.04  91 2.04
  40  0.316  0.351  0.000-  31 1.93   4 1.93   5 1.93  28 1.93  95 2.04 118 2.04
  41  0.649  0.351  0.000-  32 1.93   5 1.93   6 1.93  29 1.93  96 2.04 119 2.04
  42  0.983  0.351  0.000-  33 1.93   6 1.93   4 1.93  30 1.93  94 2.04 120 2.04
  43  0.316  0.684  0.000-  34 1.93   7 1.93   8 1.93  31 1.93  98 2.04 121 2.04
  44  0.649  0.684  0.000-  35 1.93   8 1.93   9 1.93  32 1.93  99 2.04 122 2.04
  45  0.983  0.684  0.000-  36 1.93   9 1.93   7 1.93  33 1.93  97 2.04 123 2.04
  46  0.316  0.017  0.500-  19 1.93  10 1.93  11 1.93  25 1.93 101 2.04 115 2.04
  47  0.649  0.017  0.500-  20 1.93  11 1.93  12 1.93  26 1.93 102 2.04 116 2.04
  48  0.983  0.017  0.500-  21 1.93  12 1.93  10 1.93  27 1.93 100 2.04 117 2.04
  49  0.316  0.351  0.500-  22 1.93  13 1.93  14 1.93  19 1.93 104 2.04 109 2.04
  50  0.649  0.351  0.500-  23 1.93  14 1.93  15 1.93  20 1.93 105 2.04 110 2.04
  51  0.983  0.351  0.500-  24 1.93  15 1.93  13 1.93  21 1.93 103 2.04 111 2.04
  52  0.316  0.684  0.500-  25 1.93  16 1.93  17 1.93  22 1.93 107 2.04 112 2.04
  53  0.649  0.684  0.500-  26 1.93  17 1.93  18 1.93  23 1.93 108 2.04 113 2.04
  54  0.983  0.684  0.500-  27 1.93  18 1.93  16 1.93  24 1.93 106 2.04 114 2.04
  55  0.199  0.234  0.150- 109 2.43  94 2.73  92 2.73  95 2.73  91 2.74
  56  0.533  0.234  0.150- 110 2.43  92 2.73  95 2.73  93 2.73  96 2.73
  57  0.866  0.234  0.150- 111 2.43  93 2.73  96 2.73  94 2.73  91 2.74
  58  0.199  0.567  0.150- 112 2.43  94 2.73  97 2.73  95 2.73  98 2.73
  59  0.533  0.567  0.150- 113 2.43  95 2.73  98 2.73  96 2.73  99 2.73
  60  0.866  0.567  0.150- 114 2.43  96 2.73  99 2.73  94 2.73  97 2.73
  61  0.199  0.901  0.150- 115 2.43  91 2.72  97 2.73  98 2.73  92 2.73
  62  0.533  0.901  0.150- 116 2.43  98 2.73  92 2.73  99 2.73  93 2.73
  63  0.866  0.901  0.150- 117 2.43  91 2.72  99 2.73  93 2.73  97 2.73
  64  0.199  0.234  0.650- 118 2.43 100 2.73 103 2.73 101 2.73 104 2.73
  65  0.533  0.234  0.650- 119 2.43 101 2.73 104 2.73 102 2.73 105 2.73
  66  0.866  0.234  0.650- 120 2.43 102 2.73 105 2.73 100 2.73 103 2.73
  67  0.199  0.567  0.650- 121 2.43 103 2.73 106 2.73 104 2.73 107 2.73
  68  0.533  0.567  0.650- 122 2.43 104 2.73 107 2.73 105 2.73 108 2.73
  69  0.866  0.567  0.650- 123 2.43 105 2.73 108 2.73 103 2.73 106 2.73
  70  0.199  0.901  0.650- 124 2.43 106 2.73 100 2.73 107 2.73 101 2.73
  71  0.533  0.901  0.650- 125 2.43 107 2.73 101 2.73 108 2.73 102 2.73
  72  0.866  0.901  0.650- 126 2.43 108 2.73 102 2.73 106 2.73 100 2.73
  73  0.099  0.134  0.350-  91 2.43 109 2.73 111 2.73 115 2.73 117 2.73
  74  0.433  0.134  0.350-  92 2.43 110 2.73 109 2.73 116 2.73 115 2.73
  75  0.766  0.134  0.350-  93 2.43 111 2.73 110 2.73 117 2.73 116 2.73
  76  0.099  0.467  0.350-  94 2.43 112 2.73 114 2.73 109 2.73 111 2.73
  77  0.433  0.467  0.350-  95 2.43 113 2.73 112 2.73 110 2.73 109 2.73
  78  0.766  0.467  0.350-  96 2.43 114 2.73 113 2.73 111 2.73 110 2.73
  79  0.099  0.801  0.350-  97 2.43 115 2.73 117 2.73 112 2.73 114 2.73
  80  0.433  0.801  0.350-  98 2.43 116 2.73 115 2.73 113 2.73 112 2.73
  81  0.766  0.801  0.350-  99 2.43 117 2.73 116 2.73 114 2.73 113 2.73
  82  0.099  0.134  0.850- 100 2.43 118 2.73 120 2.73 124 2.73 126 2.73
  83  0.433  0.134  0.850- 101 2.43 119 2.73 118 2.73 125 2.73 124 2.73
  84  0.766  0.134  0.850- 102 2.43 120 2.73 119 2.73 126 2.73 125 2.73
  85  0.099  0.467  0.850- 103 2.43 121 2.73 123 2.73 118 2.73 120 2.73
  86  0.433  0.467  0.850- 104 2.43 122 2.73 121 2.73 119 2.73 118 2.73
  87  0.766  0.467  0.850- 105 2.43 123 2.73 122 2.73 120 2.73 119 2.73
  88  0.099  0.801  0.850- 106 2.43 124 2.73 126 2.73 121 2.73 123 2.73
  89  0.433  0.801  0.850- 107 2.43 125 2.73 124 2.73 122 2.73 121 2.73
  90  0.766  0.801  0.850- 108 2.43 126 2.73 125 2.73 123 2.73 122 2.73
  91  0.036  0.070  0.160-  39 2.04  73 2.43  61 2.72  63 2.72  55 2.74  57 2.74
  92  0.369  0.071  0.160-  37 2.04  74 2.43  56 2.73  62 2.73  55 2.73  61 2.73
  93  0.703  0.071  0.160-  38 2.04  75 2.43  57 2.73  63 2.73  56 2.73  62 2.73
  94  0.036  0.404  0.160-  42 2.04  76 2.43  58 2.73  55 2.73  60 2.73  57 2.73
  95  0.369  0.404  0.160-  40 2.04  77 2.43  59 2.73  56 2.73  58 2.73  55 2.73
  96  0.703  0.404  0.160-  41 2.04  78 2.43  60 2.73  57 2.73  59 2.73  56 2.73
  97  0.036  0.737  0.160-  45 2.04  79 2.43  61 2.73  58 2.73  63 2.73  60 2.73
  98  0.369  0.737  0.160-  43 2.04  80 2.43  62 2.73  59 2.73  61 2.73  58 2.73
  99  0.703  0.737  0.160-  44 2.04  81 2.43  63 2.73  60 2.73  62 2.73  59 2.73
 100  0.036  0.071  0.660-  48 2.04  82 2.43  64 2.73  70 2.73  66 2.73  72 2.73
 101  0.369  0.071  0.660-  46 2.04  83 2.43  65 2.73  71 2.73  64 2.73  70 2.73
 102  0.703  0.071  0.660-  47 2.04  84 2.43  66 2.73  72 2.73  65 2.73  71 2.73
 103  0.036  0.404  0.660-  51 2.04  85 2.43  67 2.73  64 2.73  69 2.73  66 2.73
 104  0.369  0.404  0.660-  49 2.04  86 2.43  68 2.73  65 2.73  67 2.73  64 2.73
 105  0.703  0.404  0.660-  50 2.04  87 2.43  69 2.73  66 2.73  68 2.73  65 2.73
 106  0.036  0.737  0.660-  54 2.04  88 2.43  70 2.73  67 2.73  72 2.73  69 2.73
 107  0.369  0.737  0.660-  52 2.04  89 2.43  71 2.73  68 2.73  70 2.73  67 2.73
 108  0.703  0.737  0.660-  53 2.04  90 2.43  72 2.73  69 2.73  71 2.73  68 2.73
 109  0.263  0.297  0.340-  49 2.04  55 2.43  73 2.73  74 2.73  76 2.73  77 2.73
 110  0.596  0.297  0.340-  50 2.04  56 2.43  74 2.73  75 2.73  77 2.73  78 2.73
 111  0.929  0.297  0.340-  51 2.04  57 2.43  75 2.73  73 2.73  78 2.73  76 2.73
 112  0.263  0.631  0.340-  52 2.04  58 2.43  76 2.73  77 2.73  79 2.73  80 2.73
 113  0.596  0.631  0.340-  53 2.04  59 2.43  77 2.73  78 2.73  80 2.73  81 2.73
 114  0.929  0.631  0.340-  54 2.04  60 2.43  78 2.73  76 2.73  81 2.73  79 2.73
 115  0.263  0.964  0.340-  46 2.04  61 2.43  79 2.73  80 2.73  73 2.73  74 2.73
 116  0.596  0.964  0.340-  47 2.04  62 2.43  80 2.73  81 2.73  74 2.73  75 2.73
 117  0.929  0.964  0.340-  48 2.04  63 2.43  81 2.73  79 2.73  75 2.73  73 2.73
 118  0.263  0.297  0.840-  40 2.04  64 2.43  82 2.73  83 2.73  85 2.73  86 2.73
 119  0.596  0.297  0.840-  41 2.04  65 2.43  83 2.73  84 2.73  86 2.73  87 2.73
 120  0.929  0.297  0.840-  42 2.04  66 2.43  84 2.73  82 2.73  87 2.73  85 2.73
 121  0.263  0.631  0.840-  43 2.04  67 2.43  85 2.73  86 2.73  88 2.73  89 2.73
 122  0.596  0.631  0.840-  44 2.04  68 2.43  86 2.73  87 2.73  89 2.73  90 2.73
 123  0.929  0.631  0.840-  45 2.04  69 2.43  87 2.73  85 2.73  90 2.73  88 2.73
 124  0.263  0.964  0.840-  37 2.04  70 2.43  88 2.73  89 2.73  82 2.73  83 2.73
 125  0.596  0.964  0.840-  38 2.04  71 2.43  89 2.73  90 2.73  83 2.73  84 2.73
 126  0.929  0.964  0.840-  39 2.04  72 2.43  90 2.73  88 2.73  84 2.73  82 2.73
 

IMPORTANT INFORMATION: All symmetrisations will be switched off!
NOSYMM: (Re-)initialisation of all symmetry stuff for point group C_1.

 
 
 KPOINTS: # No comment                            

Automatic generation of k-mesh.
Space group operators:
 irot       det(A)        alpha          n_x          n_y          n_z        tau_x        tau_y        tau_z
    1     1.000000     0.000000     1.000000     0.000000     0.000000     0.000000     0.000000     0.000000
 
 Subroutine IBZKPT returns following result:
 ===========================================
 
 Found     10 irreducible k-points:
 
 Following reciprocal coordinates:
            Coordinates               Weight
  0.000000  0.000000  0.000000      1.000000
  0.333333  0.000000 -0.000000      2.000000
 -0.000000  0.333333  0.000000      2.000000
  0.333333  0.333333 -0.000000      2.000000
 -0.333333  0.333333  0.000000      2.000000
  0.000000 -0.000000  0.500000      1.000000
  0.333333 -0.000000  0.500000      2.000000
  0.000000  0.333333  0.500000      2.000000
  0.333333  0.333333  0.500000      2.000000
 -0.333333  0.333333  0.500000      2.000000
 
 Following cartesian coordinates:
            Coordinates               Weight
  0.000000  0.000000  0.000000      1.000000
  0.028801  0.000012  0.008684      2.000000
  0.000002  0.028801  0.008684      2.000000
  0.028803  0.028813  0.017368      2.000000
 -0.028799  0.028789 -0.000000      2.000000
  0.000032  0.000032  0.039185      1.000000
  0.028833  0.000044  0.047869      2.000000
  0.000034  0.028833  0.047869      2.000000
  0.028835  0.028845  0.056553      2.000000
 -0.028767  0.028821  0.039185      2.000000
 


--------------------------------------------------------------------------------------------------------




 Dimension of arrays:
   k-points           NKPTS =     10   k-points in BZ     NKDIM =     10   number of bands    NBANDS=    680
   number of dos      NEDOS =    301   number of ions     NIONS =    126
   non local maximal  LDIM  =      6   non local SUM 2l+1 LMDIM =     18
   total plane-waves  NPLWV = ******
   max r-space proj   IRMAX =      1   max aug-charges    IRDMAX= 163177
   dimension x,y,z NGX =    96 NGY =   96 NGZ =  120
   dimension x,y,z NGXF=   192 NGYF=  192 NGZF=  240
   support grid    NGXF=   384 NGYF=  384 NGZF=  480
   ions per type =              36  18  36  36
   NGX,Y,Z   is equivalent  to a cutoff of  13.79, 13.79, 14.37 a.u.
   NGXF,Y,Z  is equivalent  to a cutoff of  27.57, 27.57, 28.75 a.u.

 SYSTEM =  unknown system                          
 POSCAR =  # Compound: Li36O18S36Fe36. Old comment:

 Startparameter for this run:
   NWRITE =      1    write-flag & timer
   PREC   = accura    normal or accurate (medium, high low for compatibility)
   ISTART =      0    job   : 0-new  1-cont  2-samecut
   ICHARG =      1    charge: 1-file 2-atom 10-const
   ISPIN  =      2    spin polarized calculation?
   LNONCOLLINEAR =      F non collinear calculations
   LSORBIT =      F    spin-orbit coupling
   INIWAV =      1    electr: 0-lowe 1-rand  2-diag
   LASPH  =      T    aspherical Exc in radial PAW
   METAGGA=      F    non-selfconsistent MetaGGA calc.

 Electronic Relaxation 1
   ENCUT  =  650.0 eV  47.77 Ry    6.91 a.u.  24.07 24.07 28.85*2*pi/ulx,y,z
   ENINI  =  650.0     initial cutoff
   ENAUG  =  628.9 eV  augmentation charge cutoff
   NELM   =    200;   NELMIN=  8; NELMDL=  0     # of ELM steps 
   EDIFF  = 0.1E-05   stopping-criterion for ELM
   LREAL  =      F    real-space projection
   NLSPLINE    = F    spline interpolate recip. space projectors
   LCOMPAT=      F    compatible to vasp.4.4
   GGA_COMPAT  = T    GGA compatible to vasp.4.4-vasp.4.6
   LMAXPAW     = -100 max onsite density
   LMAXMIX     =    4 max onsite mixed and CHGCAR
   VOSKOWN=      0    Vosko Wilk Nusair interpolation
   ROPT   =    0.00000   0.00000   0.00000   0.00000
 Ionic relaxation
   EDIFFG = 0.1E-04   stopping-criterion for IOM
   NSW    =      0    number of steps for IOM
   NBLOCK =      1;   KBLOCK =      1    inner block; outer block 
   IBRION =     -1    ionic relax: 0-MD 1-quasi-New 2-CG
   NFREE  =      0    steps in history (QN), initial steepest desc. (CG)
   ISIF   =      3    stress and relaxation
   IWAVPR =     10    prediction:  0-non 1-charg 2-wave 3-comb
   ISYM   =      0    0-nonsym 1-usesym 2-fastsym
   LCORR  =      T    Harris-Foulkes like correction to forces

   POTIM  = 0.5000    time-step for ionic-motion
   TEIN   =    0.0    initial temperature
   TEBEG  =    0.0;   TEEND  =   0.0 temperature during run
   SMASS  =  -3.00    Nose mass-parameter (am)
   estimated Nose-frequenzy (Omega)   =  0.10E-29 period in steps =****** mass=  -0.306E-26a.u.
   SCALEE = 1.0000    scale energy and forces
   NPACO  =    256;   APACO  = 16.0  distance and # of slots for P.C.
   PSTRESS=    0.0 pullay stress

  Mass of Ions in am
   POMASS =   7.01 16.00 32.07 55.85
  Ionic Valenz
   ZVAL   =   3.00  6.00  6.00 14.00
  Atomic Wigner-Seitz radii
   RWIGS  =  -1.00 -1.00 -1.00 -1.00
  virtual crystal weights 
   VCA    =   1.00  1.00  1.00  1.00
   NELECT =     936.0000    total number of electrons
   NUPDOWN=      -1.0000    fix difference up-down

 DOS related values:
   EMIN   =  10.00;   EMAX   =-10.00  energy-range for DOS
   EFERMI =   0.00
   ISMEAR =     0;   SIGMA  =   0.05  broadening in eV -4-tet -1-fermi 0-gaus

 Electronic relaxation 2 (details)
   IALGO  =     58    algorithm
   LDIAG  =      T    sub-space diagonalisation (order eigenvalues)
   LSUBROT=      F    optimize rotation matrix (better conditioning)
   TURBO    =      0    0=normal 1=particle mesh
   IRESTART =      0    0=no restart 2=restart with 2 vectors
   NREBOOT  =      0    no. of reboots
   NMIN     =      0    reboot dimension
   EREF     =   0.00    reference energy to select bands
   IMIX   =      4    mixing-type and parameters
     AMIX     =   0.40;   BMIX     =  1.00
     AMIX_MAG =   1.60;   BMIX_MAG =  1.00
     AMIN     =   0.10
     WC   =   100.;   INIMIX=   1;  MIXPRE=   1;  MAXMIX= -45

 Intra band minimization:
   WEIMIN = 0.0000     energy-eigenvalue tresh-hold
   EBREAK =  0.37E-09  absolut break condition
   DEPER  =   0.30     relativ break condition  

   TIME   =   0.40     timestep for ELM

  volume/ion in A,a.u.               =      13.57        91.59
  Fermi-wavevector in a.u.,A,eV,Ry     =   1.339150  2.530627 24.399639  1.793323
  Thomas-Fermi vector in A             =   2.467565
 
 Write flags
   LWAVE        =      F    write WAVECAR
   LDOWNSAMPLE  =      F    k-point downsampling of WAVECAR
   LCHARG       =      T    write CHGCAR
   LVTOT        =      F    write LOCPOT, total local potential
   LVHAR        =      F    write LOCPOT, Hartree potential only
   LELF         =      F    write electronic localiz. function (ELF)
   LORBIT       =      0    0 simple, 1 ext, 2 COOP (PROOUT), +10 PAW based schemes


 Dipole corrections
   LMONO  =      F    monopole corrections only (constant potential shift)
   LDIPOL =      F    correct potential (dipole corrections)
   IDIPOL =      0    1-x, 2-y, 3-z, 4-all directions 
   EPSILON=  1.0000000 bulk dielectric constant

 LDA+U is selected, type is set to LDAUTYPE =  2
   angular momentum for each species LDAUL =    -1   -1   -1    2
   U (eV)           for each species LDAUU =   0.0  0.0  0.0  4.0
   J (eV)           for each species LDAUJ =   0.0  0.0  0.0  0.0
 Exchange correlation treatment:
   GGA     =    PE    GGA type
   LEXCH   =     8    internal setting for exchange type
   VOSKOWN=      0    Vosko Wilk Nusair interpolation
   LHFCALC =     F    Hartree Fock is set to
   LHFONE  =     F    Hartree Fock one center treatment
   AEXX    =    0.0000 exact exchange contribution

 Linear response parameters
   LEPSILON=     F    determine dielectric tensor
   LRPA    =     F    only Hartree local field effects (RPA)
   LNABLA  =     F    use nabla operator in PAW spheres
   LVEL    =     F    velocity operator in full k-point grid
   LINTERFAST=   F  fast interpolation
   KINTER  =     0    interpolate to denser k-point grid
   CSHIFT  =0.1000    complex shift for real part using Kramers Kronig
   OMEGAMAX=  -1.0    maximum frequency
   DEG_THRESHOLD= 0.2000000E-02 threshold for treating states as degnerate
   RTIME   =   -0.100 relaxation time in fs
  (WPLASMAI=    0.000 imaginary part of plasma frequency in eV, 0.658/RTIME)
   DFIELD  = 0.0000000 0.0000000 0.0000000 field for delta impulse in time
 
 Orbital magnetization related:
   ORBITALMAG=     F  switch on orbital magnetization
   LCHIMAG   =     F  perturbation theory with respect to B field
   DQ        =  0.001000  dq finite difference perturbation B field
   LLRAUG    =     F  two centre corrections for induced B field



--------------------------------------------------------------------------------------------------------


 Static calculation
 charge density and potential will be updated during run
 spin polarized calculation
 Conjugate gradient for all bands (Freysoldt, et al. PRB 79, 241103 (2009))
 preconditioned conjugated gradient                                        
 perform sub-space diagonalisation
    before iterative eigenvector-optimisation
 modified Broyden-mixing scheme, WC =      100.0
 initial mixing is a Kerker type mixing with AMIX =  0.4000 and BMIX =      1.0000
 Hartree-type preconditioning will be used
 using additional bands          212
 reciprocal scheme for non local part
 use partial core corrections
 no Harris-corrections to forces 
 use gradient corrections 
 use of overlap-Matrix (Vanderbilt PP)
 Gauss-broadening in eV      SIGMA  =   0.05


--------------------------------------------------------------------------------------------------------


  energy-cutoff  :      650.00
  volume of cell :     1710.06
      direct lattice vectors                 reciprocal lattice vectors
    11.576583240  0.002066280 -0.009542910     0.086402742  0.000036295  0.026052044
    -0.001985520 11.576599830 -0.009542940     0.000006054  0.086402626  0.026052036
    -3.847679420 -3.849030720 12.766359180     0.000064591  0.000064614  0.078369816

  length of vectors
    11.576587358 11.576603934 13.878025836     0.090244912  0.090244792  0.078369870


 
 k-points in units of 2pi/SCALE and weight: # No comment                            
   0.00000000  0.00000000  0.00000000       0.056
   0.02880091  0.00001210  0.00868401       0.111
   0.00000202  0.02880088  0.00868401       0.111
   0.02880293  0.02881297  0.01736803       0.111
  -0.02879890  0.02878878 -0.00000000       0.111
   0.00003230  0.00003231  0.03918491       0.056
   0.02883321  0.00004441  0.04786892       0.111
   0.00003431  0.02883318  0.04786892       0.111
   0.02883523  0.02884528  0.05655294       0.111
  -0.02876660  0.02882108  0.03918491       0.111
 
 k-points in reciprocal lattice and weights: # No comment                            
   0.00000000  0.00000000  0.00000000       0.056
   0.33333333  0.00000000 -0.00000000       0.111
  -0.00000000  0.33333333  0.00000000       0.111
   0.33333333  0.33333333 -0.00000000       0.111
  -0.33333333  0.33333333  0.00000000       0.111
   0.00000000 -0.00000000  0.50000000       0.056
   0.33333333 -0.00000000  0.50000000       0.111
   0.00000000  0.33333333  0.50000000       0.111
   0.33333333  0.33333333  0.50000000       0.111
  -0.33333333  0.33333333  0.50000000       0.111
 
 position of ions in fractional coordinates (direct lattice) 
   0.14940024  0.01727802  0.00000711
   0.48273357  0.01727802  0.00000711
   0.81606690  0.01727802  0.00000711
   0.14940024  0.35061135  0.00000711
   0.48273357  0.35061135  0.00000711
   0.81606690  0.35061135  0.00000711
   0.14940024  0.68394468  0.00000711
   0.48273357  0.68394468  0.00000711
   0.81606690  0.68394468  0.00000711
   0.14940024  0.01727802  0.50000711
   0.48273357  0.01727802  0.50000711
   0.81606690  0.01727802  0.50000711
   0.14940024  0.35061135  0.50000711
   0.48273357  0.35061135  0.50000711
   0.81606690  0.35061135  0.50000711
   0.14940024  0.68394468  0.50000711
   0.48273357  0.68394468  0.50000711
   0.81606690  0.68394468  0.50000711
   0.31605532  0.18393310  0.49999289
   0.64938865  0.18393310  0.49999289
   0.98272198  0.18393310  0.49999289
   0.31605532  0.51726643  0.49999289
   0.64938865  0.51726643  0.49999289
   0.98272198  0.51726643  0.49999289
   0.31605532  0.85059976  0.49999289
   0.64938865  0.85059976  0.49999289
   0.98272198  0.85059976  0.49999289
   0.31605532  0.18393310  0.99999289
   0.64938865  0.18393310  0.99999289
   0.98272198  0.18393310  0.99999289
   0.31605532  0.51726643  0.99999289
   0.64938865  0.51726643  0.99999289
   0.98272198  0.51726643  0.99999289
   0.31605532  0.85059976  0.99999289
   0.64938865  0.85059976  0.99999289
   0.98272198  0.85059976  0.99999289
   0.31606288  0.01727079  0.00000000
   0.64939621  0.01727079  0.00000000
   0.98272954  0.01727079  0.00000000
   0.31606288  0.35060413  0.00000000
   0.64939621  0.35060413  0.00000000
   0.98272954  0.35060413  0.00000000
   0.31606288  0.68393746  0.00000000
   0.64939621  0.68393746  0.00000000
   0.98272954  0.68393746  0.00000000
   0.31606288  0.01727079  0.50000000
   0.64939621  0.01727079  0.50000000
   0.98272954  0.01727079  0.50000000
   0.31606288  0.35060413  0.50000000
   0.64939621  0.35060413  0.50000000
   0.98272954  0.35060413  0.50000000
   0.31606288  0.68393746  0.50000000
   0.64939621  0.68393746  0.50000000
   0.98272954  0.68393746  0.50000000
   0.19934057  0.23388678  0.14983771
   0.53267391  0.23388678  0.14983771
   0.86600724  0.23388678  0.14983771
   0.19934057  0.56722011  0.14983771
   0.53267391  0.56722011  0.14983771
   0.86600724  0.56722011  0.14983771
   0.19934057  0.90055344  0.14983771
   0.53267391  0.90055344  0.14983771
   0.86600724  0.90055344  0.14983771
   0.19934057  0.23388678  0.64983771
   0.53267391  0.23388678  0.64983771
   0.86600724  0.23388678  0.64983771
   0.19934057  0.56722011  0.64983771
   0.53267391  0.56722011  0.64983771
   0.86600724  0.56722011  0.64983771
   0.19934057  0.90055344  0.64983771
   0.53267391  0.90055344  0.64983771
   0.86600724  0.90055344  0.64983771
   0.09944656  0.13399276  0.35016229
   0.43277989  0.13399276  0.35016229
   0.76611322  0.13399276  0.35016229
   0.09944656  0.46732609  0.35016229
   0.43277989  0.46732609  0.35016229
   0.76611322  0.46732609  0.35016229
   0.09944656  0.80065943  0.35016229
   0.43277989  0.80065943  0.35016229
   0.76611322  0.80065943  0.35016229
   0.09944656  0.13399276  0.85016229
   0.43277989  0.13399276  0.85016229
   0.76611322  0.13399276  0.85016229
   0.09944656  0.46732609  0.85016229
   0.43277989  0.46732609  0.85016229
   0.76611322  0.46732609  0.85016229
   0.09944656  0.80065943  0.85016229
   0.43277989  0.80065943  0.85016229
   0.76611322  0.80065943  0.85016229
   0.03603208  0.06971249  0.15990037
   0.36936541  0.07057630  0.15990037
   0.70269875  0.07057630  0.15990037
   0.03603208  0.40390964  0.15990037
   0.36936541  0.40390964  0.15990037
   0.70269875  0.40390964  0.15990037
   0.03603208  0.73724297  0.15990037
   0.36936541  0.73724297  0.15990037
   0.70269875  0.73724297  0.15990037
   0.03603208  0.07057630  0.65990037
   0.36936541  0.07057630  0.65990037
   0.70269875  0.07057630  0.65990037
   0.03603208  0.40390964  0.65990037
   0.36936541  0.40390964  0.65990037
   0.70269875  0.40390964  0.65990037
   0.03603208  0.73724297  0.65990037
   0.36936541  0.73724297  0.65990037
   0.70269875  0.73724297  0.65990037
   0.26275703  0.29730125  0.34009963
   0.59609036  0.29730125  0.34009963
   0.92942370  0.29730125  0.34009963
   0.26275703  0.63063459  0.34009963
   0.59609036  0.63063459  0.34009963
   0.92942370  0.63063459  0.34009963
   0.26275703  0.96396792  0.34009963
   0.59609036  0.96396792  0.34009963
   0.92942370  0.96396792  0.34009963
   0.26275703  0.29730125  0.84009963
   0.59609036  0.29730125  0.84009963
   0.92942370  0.29730125  0.84009963
   0.26275703  0.63063459  0.84009963
   0.59609036  0.63063459  0.84009963
   0.92942370  0.63063459  0.84009963
   0.26275703  0.96396792  0.84009963
   0.59609036  0.96396792  0.84009963
   0.92942370  0.96396792  0.84009963
 
 position of ions in cartesian coordinates  (Angst):
   1.72948263  0.20030204 -0.00149989
   5.58834371  0.20099080 -0.00468086
   9.44720479  0.20167956 -0.00786183
   1.72882079  4.05916865 -0.00468087
   5.58768187  4.05985741 -0.00786184
   9.44654295  4.06054617 -0.01104281
   1.72815895  7.91803526 -0.00786185
   5.58702003  7.91872402 -0.01104282
   9.44588111  7.91941278 -0.01422379
  -0.19435708 -1.72421332  6.38167970
   3.66450400 -1.72352456  6.37849873
   7.52336508 -1.72283580  6.37531776
  -0.19501892  2.13465329  6.37849872
   3.66384216  2.13534205  6.37531775
   7.52270324  2.13603081  6.37213678
  -0.19568076  5.99351990  6.37531774
   3.66318032  5.99420866  6.37213677
   7.52204140  5.99489742  6.36895580
   1.73466311  0.20548490  6.37831754
   5.59352419  0.20617366  6.37513657
   9.45238527  0.20686242  6.37195560
   1.73400127  4.06435151  6.37513656
   5.59286235  4.06504027  6.37195559
   9.45172343  4.06572903  6.36877462
   1.73333943  7.92321812  6.37195558
   5.59220051  7.92390688  6.36877461
   9.45106159  7.92459564  6.36559364
  -0.18917660 -1.71903046 12.76149713
   3.66968448 -1.71834170 12.75831616
   7.52854556 -1.71765294 12.75513519
  -0.18983844  2.13983615 12.75831615
   3.66902264  2.14052491 12.75513518
   7.52788372  2.14121367 12.75195421
  -0.19050028  5.99870276 12.75513517
   3.66836080  5.99939152 12.75195420
   7.52722188  6.00008028 12.74877323
   3.65889391  0.20059014 -0.00318097
   7.51775499  0.20127890 -0.00636194
  11.37661607  0.20196766 -0.00954291
   3.65823207  4.05945675 -0.00636195
   7.51709315  4.06014551 -0.00954292
  11.37595423  4.06083427 -0.01272389
   3.65757023  7.91832336 -0.00954293
   7.51643131  7.91901212 -0.01272390
  11.37529239  7.91970088 -0.01590487
   1.73505420 -1.72392522  6.37999862
   5.59391528 -1.72323646  6.37681765
   9.45277636 -1.72254770  6.37363668
   1.73439236  2.13494139  6.37681764
   5.59325344  2.13563015  6.37363667
   9.45211452  2.13631891  6.37045570
   1.73373052  5.99380800  6.37363666
   5.59259160  5.99449676  6.37045569
   9.45145268  5.99518552  6.36727472
   1.73069086  2.13129554  1.90874783
   5.58955194  2.13198430  1.90556686
   9.44841302  2.13267306  1.90238589
   1.73002902  5.99016215  1.90556685
   5.58889010  5.99085091  1.90238588
   9.44775118  5.99153967  1.89920491
   1.72936718  9.84902876  1.90238587
   5.58822826  9.84971752  1.89920490
   9.44708934  9.85040628  1.89602393
  -0.19314885  0.20678018  8.29192742
   3.66571223  0.20746894  8.28874645
   7.52457331  0.20815770  8.28556548
  -0.19381069  4.06564679  8.28874644
   3.66505039  4.06633555  8.28556547
   7.52391147  4.06702431  8.28238450
  -0.19447253  7.92451340  8.28556546
   3.66438855  7.92520216  8.28238449
   7.52324963  7.92589092  8.27920352
  -0.19632692  0.20360066  4.46806981
   3.66253416  0.20428942  4.46488884
   7.52139524  0.20497818  4.46170787
  -0.19698876  4.06246726  4.46488883
   3.66187232  4.06315602  4.46170786
   7.52073340  4.06384478  4.45852689
  -0.19765060  7.92133388  4.46170785
   3.66121048  7.92202264  4.45852688
   7.52007156  7.92271140  4.45534591
  -2.12016663 -1.72091470 10.85124940
   1.73869445 -1.72022594 10.84806843
   5.59755553 -1.71953718 10.84488746
  -2.12082847  2.13795190 10.84806842
   1.73803261  2.13864066 10.84488745
   5.59689369  2.13932942 10.84170648
  -2.12149031  5.99681852 10.84488744
   1.73737077  5.99750728 10.84170647
   5.59623185  5.99819604 10.83852550
  -0.19825542  0.19164662  2.04033651
   3.66060394  0.20233538  2.03714729
   7.51946502  0.20302414  2.03396632
  -0.19891898  4.06051323  2.03714728
   3.65994210  4.06120199  2.03396631
   7.51880318  4.06189075  2.03078534
  -0.19958082  7.91937984  2.03396630
   3.65928026  7.92006860  2.03078533
   7.51814134  7.92075736  2.02760436
  -2.12209685 -1.72286874  8.42350785
   1.73676423 -1.72217998  8.42032688
   5.59562531 -1.72149122  8.41714591
  -2.12275869  2.13599787  8.42032687
   1.73610239  2.13668663  8.41714590
   5.59496347  2.13737539  8.41396493
  -2.12342053  5.99486448  8.41714589
   1.73544055  5.99555324  8.41396492
   5.59430163  5.99624200  8.41078395
   1.73264400  2.13322666  4.33648938
   5.59150508  2.13391542  4.33330841
   9.45036616  2.13460418  4.33012744
   1.73198216  5.99209327  4.33330840
   5.59084324  5.99278203  4.33012743
   9.44970432  5.99347079  4.32694646
   1.73132032  9.85095988  4.33012742
   5.59018140  9.85164864  4.32694645
   9.44904248  9.85233740  4.32376548
  -0.19119571  0.20871130 10.71966897
   3.66766537  0.20940006 10.71648800
   7.52652645  0.21008882 10.71330703
  -0.19185755  4.06757791 10.71648799
   3.66700353  4.06826667 10.71330702
   7.52586461  4.06895543 10.71012605
  -0.19251939  7.92644452 10.71330701
   3.66634169  7.92713328 10.71012604
   7.52520277  7.92782204 10.70694507
 


--------------------------------------------------------------------------------------------------------


 k-point  1 :   0.0000 0.0000 0.0000  plane waves:   64263
 k-point  2 :   0.3333 0.0000-0.0000  plane waves:   64335
 k-point  3 :  -0.0000 0.3333 0.0000  plane waves:   64335
 k-point  4 :   0.3333 0.3333-0.0000  plane waves:   64357
 k-point  5 :  -0.3333 0.3333 0.0000  plane waves:   64358
 k-point  6 :   0.0000-0.0000 0.5000  plane waves:   64288
 k-point  7 :   0.3333-0.0000 0.5000  plane waves:   64351
 k-point  8 :   0.0000 0.3333 0.5000  plane waves:   64351
 k-point  9 :   0.3333 0.3333 0.5000  plane waves:   64367
 k-point 10 :  -0.3333 0.3333 0.5000  plane waves:   64380

 maximum and minimum number of plane-waves per node :     10768    10677

 maximum number of plane-waves:     64380
 maximum index in each direction: 
   IXMAX=   24   IYMAX=   24   IZMAX=   28
   IXMIN=  -24   IYMIN=  -24   IZMIN=  -29


 parallel 3D FFT for wavefunctions:
    minimum data exchange during FFTs selected (reduces bandwidth)
 parallel 3D FFT for charge:
    minimum data exchange during FFTs selected (reduces bandwidth)


 total amount of memory used by VASP MPI-rank0  2010615. kBytes
=======================================================================

   base      :      30000. kBytes
   nonl-proj :      83483. kBytes
   fftplans  :      59337. kBytes
   grid      :      50429. kBytes
   one-center:        653. kBytes
   wavefun   :    1786713. kBytes
 
     INWAV:  cpu time    0.0000: real time    0.0000
 Broyden mixing: mesh for mixing (old mesh)
   NGX = 49   NGY = 49   NGZ = 57
  (NGX  =192   NGY  =192   NGZ  =240)
  gives a total of 136857 points

 initial charge density was supplied:
 number of electron     936.0000012 magnetization     144.0000005
 charge density for first step will be calculated from the start-wavefunctions


--------------------------------------------------------------------------------------------------------


 Maximum index for augmentation-charges         6958 (set IRDMAX)


--------------------------------------------------------------------------------------------------------


 First call to EWALD:  gamma=   0.148
 Maximum number of real-space cells 3x 3x 3
 Maximum number of reciprocal cells 3x 3x 3

    FEWALD:  cpu time    0.0721: real time    0.0722


--------------------------------------- Iteration      1(   1)  ---------------------------------------


    POTLOK:  cpu time    0.6154: real time    0.6321
    SETDIJ:  cpu time    1.5926: real time    1.5939
    TRIAL :  cpu time  253.7666: real time  256.5095
    CORREC:  cpu time    0.0040: real time    0.0042
    --------------------------------------------
      LOOP:  cpu time  256.5357: real time  259.3054

 eigenvalue-minimisations  : 28328
 total energy-change (2. order) : 0.1264853E+05  (-0.5394337E+05)
 number of electron     936.0000012 magnetization     144.0000005
 augmentation part      936.0000012 magnetization     144.0000005

 Free energy of the ion-electron system (eV)
  ---------------------------------------------------
  alpha Z        PSCENC =      2639.27042227
  Ewald energy   TEWEN  =    -69235.14656543
  -Hartree energ DENC   =    -34827.60467407
  -exchange      EXHF   =         0.00000000
  -V(xc)+E(xc)   XCENC  =      3975.73409511
  PAW double counting   =    109952.41695739  -113408.94482908
  entropy T*S    EENTRO =        -0.02328876
  eigenvalues    EBANDS =        37.49864962
  atomic energy  EATOM  =    113515.32941094
  ---------------------------------------------------
  free energy    TOTEN  =     12648.53017799 eV

  energy without entropy =    12648.55346675  energy(sigma->0) =    12648.54182237


--------------------------------------------------------------------------------------------------------




--------------------------------------- Iteration      1(   2)  ---------------------------------------


    TRIAL :  cpu time  245.9332: real time  248.6660
    CORREC:  cpu time    0.0042: real time    0.0043
    --------------------------------------------
      LOOP:  cpu time  245.9411: real time  248.6764

 eigenvalue-minimisations  : 27200
 total energy-change (2. order) :-0.1127356E+05  (-0.1054575E+05)
 number of electron     936.0000012 magnetization     144.0000005
 augmentation part      936.0000012 magnetization     144.0000005

 Free energy of the ion-electron system (eV)
  ---------------------------------------------------
  alpha Z        PSCENC =      2639.27042227
  Ewald energy   TEWEN  =    -69235.14656543
  -Hartree energ DENC   =    -34827.60467407
  -exchange      EXHF   =         0.00000000
  -V(xc)+E(xc)   XCENC  =      3975.73409511
  PAW double counting   =    109952.41695739  -113408.94482908
  entropy T*S    EENTRO =        -0.08135812
  eigenvalues    EBANDS =    -11236.00472122
  atomic energy  EATOM  =    113515.32941094
  ---------------------------------------------------
  free energy    TOTEN  =      1374.96873779 eV

  energy without entropy =     1375.05009591  energy(sigma->0) =     1375.00941685


--------------------------------------------------------------------------------------------------------




--------------------------------------- Iteration      1(   3)  ---------------------------------------


    TRIAL :  cpu time  265.5065: real time  268.2696
    CORREC:  cpu time    0.0013: real time    0.0013
    --------------------------------------------
      LOOP:  cpu time  265.5092: real time  268.2737

 eigenvalue-minimisations  : 29864
 total energy-change (2. order) :-0.1785548E+04  (-0.1558365E+04)
 number of electron     936.0000012 magnetization     144.0000005
 augmentation part      936.0000012 magnetization     144.0000005

 Free energy of the ion-electron system (eV)
  ---------------------------------------------------
  alpha Z        PSCENC =      2639.27042227
  Ewald energy   TEWEN  =    -69235.14656543
  -Hartree energ DENC   =    -34827.60467407
  -exchange      EXHF   =         0.00000000
  -V(xc)+E(xc)   XCENC  =      3975.73409511
  PAW double counting   =    109952.41695739  -113408.94482908
  entropy T*S    EENTRO =        -0.00000000
  eigenvalues    EBANDS =    -13021.63429631
  atomic energy  EATOM  =    113515.32941094
  ---------------------------------------------------
  free energy    TOTEN  =      -410.57947918 eV

  energy without entropy =     -410.57947918  energy(sigma->0) =     -410.57947918


--------------------------------------------------------------------------------------------------------




--------------------------------------- Iteration      1(   4)  ---------------------------------------


    TRIAL :  cpu time  287.1173: real time  289.8499
    CORREC:  cpu time    0.0012: real time    0.0014
    --------------------------------------------
      LOOP:  cpu time  287.1202: real time  289.8552

 eigenvalue-minimisations  : 33240
 total energy-change (2. order) :-0.2222272E+03  (-0.2192857E+03)
 number of electron     936.0000012 magnetization     144.0000005
 augmentation part      936.0000012 magnetization     144.0000005

 Free energy of the ion-electron system (eV)
  ---------------------------------------------------
  alpha Z        PSCENC =      2639.27042227
  Ewald energy   TEWEN  =    -69235.14656543
  -Hartree energ DENC   =    -34827.60467407
  -exchange      EXHF   =         0.00000000
  -V(xc)+E(xc)   XCENC  =      3975.73409511
  PAW double counting   =    109952.41695739  -113408.94482908
  entropy T*S    EENTRO =        -0.00000000
  eigenvalues    EBANDS =    -13243.86151885
  atomic energy  EATOM  =    113515.32941094
  ---------------------------------------------------
  free energy    TOTEN  =      -632.80670172 eV

  energy without entropy =     -632.80670172  energy(sigma->0) =     -632.80670172


--------------------------------------------------------------------------------------------------------




--------------------------------------- Iteration      1(   5)  ---------------------------------------


    TRIAL :  cpu time  373.8449: real time  377.9556
    CORREC:  cpu time    0.0018: real time    0.0020
    CHARGE:  cpu time    7.2788: real time    7.3380
    --------------------------------------------
      LOOP:  cpu time  381.1347: real time  385.3068

 eigenvalue-minimisations  : 46112
 total energy-change (2. order) :-0.2412592E+02  (-0.2393176E+02)
 number of electron     936.0000012 magnetization     144.0000005
 augmentation part      323.4146565 magnetization      94.2670329

 Free energy of the ion-electron system (eV)
  ---------------------------------------------------
  alpha Z        PSCENC =      2639.27042227
  Ewald energy   TEWEN  =    -69235.14656543
  -Hartree energ DENC   =    -34827.60467407
  -exchange      EXHF   =         0.00000000
  -V(xc)+E(xc)   XCENC  =      3975.73409511
  PAW double counting   =    109952.41695739  -113408.94482908
  entropy T*S    EENTRO =        -0.00000000
  eigenvalues    EBANDS =    -13267.98744238
  atomic energy  EATOM  =    113515.32941094
  ---------------------------------------------------
  free energy    TOTEN  =      -656.93262524 eV

  energy without entropy =     -656.93262524  energy(sigma->0) =     -656.93262524


--------------------------------------------------------------------------------------------------------




--------------------------------------- Iteration      1(   6)  ---------------------------------------


    POTLOK:  cpu time    0.6197: real time    0.6205
    SETDIJ:  cpu time    1.5591: real time    1.5985
    TRIAL :  cpu time  125.2304: real time  126.6906
    CORREC:  cpu time   31.8117: real time   32.2938
    CHARGE:  cpu time    7.3318: real time    7.3843
    --------------------------------------------
      LOOP:  cpu time  166.5724: real time  168.6101

 eigenvalue-minimisations  :     0
 total energy-change (2. order) : 0.4501883E-01  (-0.5189512E+00)
 number of electron     936.0000012 magnetization     144.0000005
 augmentation part      323.0679977 magnetization      94.2322807

 Free energy of the ion-electron system (eV)
  ---------------------------------------------------
  alpha Z        PSCENC =      2639.27042227
  Ewald energy   TEWEN  =    -69235.14656543
  -Hartree energ DENC   =    -34813.97814379
  -exchange      EXHF   =         0.00000000
  -V(xc)+E(xc)   XCENC  =      3973.74902415
  PAW double counting   =    109412.11894310  -112859.73015508
  entropy T*S    EENTRO =        -0.00000000
  eigenvalues    EBANDS =    -13288.50054257
  atomic energy  EATOM  =    113515.32941094
  ---------------------------------------------------
  free energy    TOTEN  =      -656.88760641 eV

  energy without entropy =     -656.88760641  energy(sigma->0) =     -656.88760641


--------------------------------------------------------------------------------------------------------




--------------------------------------- Iteration      1(   7)  ---------------------------------------


    POTLOK:  cpu time    0.6114: real time    0.6117
    SETDIJ:  cpu time    1.5832: real time    1.5837
    TRIAL :  cpu time  125.7474: real time  127.2987
    CORREC:  cpu time   30.8308: real time   31.3867
    CHARGE:  cpu time    7.3296: real time    7.3768
    --------------------------------------------
      LOOP:  cpu time  166.1098: real time  168.2672

 eigenvalue-minimisations  :     0
 total energy-change (2. order) :-0.5191323E+00  (-0.3020858E+00)
 number of electron     936.0000012 magnetization     144.0000005
 augmentation part      322.6877473 magnetization      94.2107424

 Free energy of the ion-electron system (eV)
  ---------------------------------------------------
  alpha Z        PSCENC =      2639.27042227
  Ewald energy   TEWEN  =    -69235.14656543
  -Hartree energ DENC   =    -34822.81342963
  -exchange      EXHF   =         0.00000000
  -V(xc)+E(xc)   XCENC  =      3974.73504375
  PAW double counting   =    109640.32620833  -113090.83757357
  entropy T*S    EENTRO =        -0.00000000
  eigenvalues    EBANDS =    -13278.27025535
  atomic energy  EATOM  =    113515.32941094
  ---------------------------------------------------
  free energy    TOTEN  =      -657.40673868 eV

  energy without entropy =     -657.40673868  energy(sigma->0) =     -657.40673868


--------------------------------------------------------------------------------------------------------




--------------------------------------- Iteration      1(   8)  ---------------------------------------


    POTLOK:  cpu time    0.6046: real time    0.6139
    SETDIJ:  cpu time    1.5956: real time    1.6170
    TRIAL :  cpu time  125.0274: real time  126.5208
    CORREC:  cpu time   31.4650: real time   31.9476
    CHARGE:  cpu time    7.2145: real time    7.3185
    --------------------------------------------
      LOOP:  cpu time  165.9198: real time  168.0344

 eigenvalue-minimisations  :     0
 total energy-change (2. order) :-0.3021297E+00  (-0.1198295E+00)
 number of electron     936.0000012 magnetization     144.0000005
 augmentation part      322.3985857 magnetization      94.1904975

 Free energy of the ion-electron system (eV)
  ---------------------------------------------------
  alpha Z        PSCENC =      2639.27042227
  Ewald energy   TEWEN  =    -69235.14656543
  -Hartree energ DENC   =    -34827.19624402
  -exchange      EXHF   =         0.00000000
  -V(xc)+E(xc)   XCENC  =      3975.30561704
  PAW double counting   =    109906.86117712  -113360.88990851
  entropy T*S    EENTRO =        -0.00000000
  eigenvalues    EBANDS =    -13271.24277784
  atomic energy  EATOM  =    113515.32941094
  ---------------------------------------------------
  free energy    TOTEN  =      -657.70886843 eV

  energy without entropy =     -657.70886843  energy(sigma->0) =     -657.70886843


--------------------------------------------------------------------------------------------------------




--------------------------------------- Iteration      1(   9)  ---------------------------------------


    POTLOK:  cpu time    0.6140: real time    0.6152
    SETDIJ:  cpu time    1.6414: real time    1.6519
    TRIAL :  cpu time  125.5982: real time  127.1288
    CORREC:  cpu time   30.9549: real time   31.3273
    CHARGE:  cpu time    7.3554: real time    7.4042
    --------------------------------------------
      LOOP:  cpu time  166.1727: real time  168.1388

 eigenvalue-minimisations  :     0
 total energy-change (2. order) :-0.1198492E+00  (-0.4437590E-01)
 number of electron     936.0000012 magnetization     144.0000005
 augmentation part      322.2887860 magnetization      94.1801804

 Free energy of the ion-electron system (eV)
  ---------------------------------------------------
  alpha Z        PSCENC =      2639.27042227
  Ewald energy   TEWEN  =    -69235.14656543
  -Hartree energ DENC   =    -34823.43411399
  -exchange      EXHF   =         0.00000000
  -V(xc)+E(xc)   XCENC  =      3975.35630827
  PAW double counting   =    110025.40987430  -113480.54368593
  entropy T*S    EENTRO =        -0.00000000
  eigenvalues    EBANDS =    -13274.07036804
  atomic energy  EATOM  =    113515.32941094
  ---------------------------------------------------
  free energy    TOTEN  =      -657.82871762 eV

  energy without entropy =     -657.82871762  energy(sigma->0) =     -657.82871762


--------------------------------------------------------------------------------------------------------




--------------------------------------- Iteration      1(  10)  ---------------------------------------


    POTLOK:  cpu time    0.6159: real time    0.6168
    SETDIJ:  cpu time    1.5915: real time    1.5994
    TRIAL :  cpu time  126.6766: real time  128.3192
    CORREC:  cpu time   31.8021: real time   32.0857
    CHARGE:  cpu time    7.2296: real time    7.3535
    --------------------------------------------
      LOOP:  cpu time  167.9241: real time  169.9873

 eigenvalue-minimisations  :     0
 total energy-change (2. order) :-0.4437406E-01  (-0.1721329E-01)
 number of electron     936.0000012 magnetization     144.0000005
 augmentation part      322.2204651 magnetization      94.1685280

 Free energy of the ion-electron system (eV)
  ---------------------------------------------------
  alpha Z        PSCENC =      2639.27042227
  Ewald energy   TEWEN  =    -69235.14656543
  -Hartree energ DENC   =    -34828.20724974
  -exchange      EXHF   =         0.00000000
  -V(xc)+E(xc)   XCENC  =      3975.72651253
  PAW double counting   =    110046.54444755  -113502.99129274
  entropy T*S    EENTRO =        -0.00000000
  eigenvalues    EBANDS =    -13268.39877705
  atomic energy  EATOM  =    113515.32941094
  ---------------------------------------------------
  free energy    TOTEN  =      -657.87309167 eV

  energy without entropy =     -657.87309167  energy(sigma->0) =     -657.87309167


--------------------------------------------------------------------------------------------------------




--------------------------------------- Iteration      1(  11)  ---------------------------------------


    POTLOK:  cpu time    0.6416: real time    0.6490
    SETDIJ:  cpu time    1.5644: real time    1.5889
    TRIAL :  cpu time  126.1847: real time  127.5581
    CORREC:  cpu time   31.9606: real time   32.3856
    CHARGE:  cpu time    7.3882: real time    7.4104
    --------------------------------------------
      LOOP:  cpu time  167.7560: real time  169.6103

 eigenvalue-minimisations  :     0
 total energy-change (2. order) :-0.1721761E-01  (-0.5362921E-02)
 number of electron     936.0000012 magnetization     144.0000005
 augmentation part      322.2035743 magnetization      94.1635332

 Free energy of the ion-electron system (eV)
  ---------------------------------------------------
  alpha Z        PSCENC =      2639.27042227
  Ewald energy   TEWEN  =    -69235.14656543
  -Hartree energ DENC   =    -34827.70169385
  -exchange      EXHF   =         0.00000000
  -V(xc)+E(xc)   XCENC  =      3975.75396313
  PAW double counting   =    110010.29815135  -113466.87825027
  entropy T*S    EENTRO =        -0.00000000
  eigenvalues    EBANDS =    -13268.81574742
  atomic energy  EATOM  =    113515.32941094
  ---------------------------------------------------
  free energy    TOTEN  =      -657.89030928 eV

  energy without entropy =     -657.89030928  energy(sigma->0) =     -657.89030928


--------------------------------------------------------------------------------------------------------




--------------------------------------- Iteration      1(  12)  ---------------------------------------


    POTLOK:  cpu time    0.6384: real time    0.6438
    SETDIJ:  cpu time    1.5554: real time    1.5894
    TRIAL :  cpu time  126.6744: real time  128.2686
    CORREC:  cpu time   31.0095: real time   31.6135
    CHARGE:  cpu time    7.3921: real time    7.3969
    --------------------------------------------
      LOOP:  cpu time  167.2743: real time  169.5228

 eigenvalue-minimisations  :     0
 total energy-change (2. order) :-0.5362765E-02  (-0.2487068E-02)
 number of electron     936.0000012 magnetization     144.0000005
 augmentation part      322.1993848 magnetization      94.1576103

 Free energy of the ion-electron system (eV)
  ---------------------------------------------------
  alpha Z        PSCENC =      2639.27042227
  Ewald energy   TEWEN  =    -69235.14656543
  -Hartree energ DENC   =    -34827.63201638
  -exchange      EXHF   =         0.00000000
  -V(xc)+E(xc)   XCENC  =      3975.74051919
  PAW double counting   =    109975.01236732  -113431.78515227
  entropy T*S    EENTRO =        -0.00000000
  eigenvalues    EBANDS =    -13268.68465769
  atomic energy  EATOM  =    113515.32941094
  ---------------------------------------------------
  free energy    TOTEN  =      -657.89567205 eV

  energy without entropy =     -657.89567205  energy(sigma->0) =     -657.89567205


--------------------------------------------------------------------------------------------------------




--------------------------------------- Iteration      1(  13)  ---------------------------------------


    POTLOK:  cpu time    0.6120: real time    0.6125
    SETDIJ:  cpu time    1.5937: real time    1.5946
    TRIAL :  cpu time  125.8327: real time  127.3596
    CORREC:  cpu time   31.8295: real time   32.1676
    CHARGE:  cpu time    7.2014: real time    7.3281
    --------------------------------------------
      LOOP:  cpu time  167.0763: real time  169.0715

 eigenvalue-minimisations  :     0
 total energy-change (2. order) :-0.2491092E-02  (-0.1436838E-02)
 number of electron     936.0000012 magnetization     144.0000005
 augmentation part      322.2052430 magnetization      94.1555530

 Free energy of the ion-electron system (eV)
  ---------------------------------------------------
  alpha Z        PSCENC =      2639.27042227
  Ewald energy   TEWEN  =    -69235.14656543
  -Hartree energ DENC   =    -34827.64273828
  -exchange      EXHF   =         0.00000000
  -V(xc)+E(xc)   XCENC  =      3975.75657078
  PAW double counting   =    109946.01808061  -113402.64272572
  entropy T*S    EENTRO =        -0.00000000
  eigenvalues    EBANDS =    -13268.84061831
  atomic energy  EATOM  =    113515.32941094
  ---------------------------------------------------
  free energy    TOTEN  =      -657.89816314 eV

  energy without entropy =     -657.89816314  energy(sigma->0) =     -657.89816314


--------------------------------------------------------------------------------------------------------




--------------------------------------- Iteration      1(  14)  ---------------------------------------


    POTLOK:  cpu time    0.6243: real time    0.6401
    SETDIJ:  cpu time    1.5282: real time    1.5850
    TRIAL :  cpu time  125.4396: real time  126.9081
    CORREC:  cpu time   30.9487: real time   31.4042
    CHARGE:  cpu time    7.0973: real time    7.3207
    --------------------------------------------
      LOOP:  cpu time  165.6439: real time  167.8707

 eigenvalue-minimisations  :     0
 total energy-change (2. order) :-0.1435553E-02  (-0.8282831E-03)
 number of electron     936.0000012 magnetization     144.0000005
 augmentation part      322.2044170 magnetization      94.1507746

 Free energy of the ion-electron system (eV)
  ---------------------------------------------------
  alpha Z        PSCENC =      2639.27042227
  Ewald energy   TEWEN  =    -69235.14656543
  -Hartree energ DENC   =    -34828.05972297
  -exchange      EXHF   =         0.00000000
  -V(xc)+E(xc)   XCENC  =      3975.75380272
  PAW double counting   =    109936.75359335  -113393.51526095
  entropy T*S    EENTRO =        -0.00000000
  eigenvalues    EBANDS =    -13268.28527863
  atomic energy  EATOM  =    113515.32941094
  ---------------------------------------------------
  free energy    TOTEN  =      -657.89959869 eV

  energy without entropy =     -657.89959869  energy(sigma->0) =     -657.89959869


--------------------------------------------------------------------------------------------------------




--------------------------------------- Iteration      1(  15)  ---------------------------------------


    POTLOK:  cpu time    0.6278: real time    0.6525
    SETDIJ:  cpu time    1.5699: real time    1.6196
    TRIAL :  cpu time  126.7237: real time  128.3257
    CORREC:  cpu time   31.3916: real time   31.7023
    CHARGE:  cpu time    7.3106: real time    7.3738
    --------------------------------------------
      LOOP:  cpu time  167.6338: real time  169.6880

 eigenvalue-minimisations  :     0
 total energy-change (2. order) :-0.8323822E-03  (-0.4609885E-03)
 number of electron     936.0000012 magnetization     144.0000005
 augmentation part      322.2193749 magnetization      94.1523485

 Free energy of the ion-electron system (eV)
  ---------------------------------------------------
  alpha Z        PSCENC =      2639.27042227
  Ewald energy   TEWEN  =    -69235.14656543
  -Hartree energ DENC   =    -34827.14587713
  -exchange      EXHF   =         0.00000000
  -V(xc)+E(xc)   XCENC  =      3975.72160317
  PAW double counting   =    109936.62191899  -113393.09911671
  entropy T*S    EENTRO =        -0.00000000
  eigenvalues    EBANDS =    -13269.45222717
  atomic energy  EATOM  =    113515.32941094
  ---------------------------------------------------
  free energy    TOTEN  =      -657.90043108 eV

  energy without entropy =     -657.90043108  energy(sigma->0) =     -657.90043108


--------------------------------------------------------------------------------------------------------




--------------------------------------- Iteration      1(  16)  ---------------------------------------


    POTLOK:  cpu time    0.6033: real time    0.6171
    SETDIJ:  cpu time    1.5887: real time    1.6005
    TRIAL :  cpu time  126.5520: real time  128.2517
    CORREC:  cpu time   31.4970: real time   31.7099
    CHARGE:  cpu time    7.3167: real time    7.4119
    --------------------------------------------
      LOOP:  cpu time  167.5687: real time  169.6095

 eigenvalue-minimisations  :     0
 total energy-change (2. order) :-0.4591723E-03  (-0.2437906E-03)
 number of electron     936.0000012 magnetization     144.0000005
 augmentation part      322.2119362 magnetization      94.1490123

 Free energy of the ion-electron system (eV)
  ---------------------------------------------------
  alpha Z        PSCENC =      2639.27042227
  Ewald energy   TEWEN  =    -69235.14656543
  -Hartree energ DENC   =    -34828.47733177
  -exchange      EXHF   =         0.00000000
  -V(xc)+E(xc)   XCENC  =      3975.76514956
  PAW double counting   =    109950.38454768  -113407.09723515
  entropy T*S    EENTRO =        -0.00000000
  eigenvalues    EBANDS =    -13267.92928835
  atomic energy  EATOM  =    113515.32941094
  ---------------------------------------------------
  free energy    TOTEN  =      -657.90089025 eV

  energy without entropy =     -657.90089025  energy(sigma->0) =     -657.90089025


--------------------------------------------------------------------------------------------------------




--------------------------------------- Iteration      1(  17)  ---------------------------------------


    POTLOK:  cpu time    0.6432: real time    0.6472
    SETDIJ:  cpu time    1.5710: real time    1.5928
    TRIAL :  cpu time  126.0411: real time  127.0218
    CORREC:  cpu time   31.1637: real time   31.5689
    CHARGE:  cpu time    7.3412: real time    7.3775
    --------------------------------------------
      LOOP:  cpu time  166.7670: real time  168.2173

 eigenvalue-minimisations  :     0
 total energy-change (2. order) :-0.2474835E-03  (-0.1759675E-03)
 number of electron     936.0000012 magnetization     144.0000005
 augmentation part      322.2217874 magnetization      94.1521224

 Free energy of the ion-electron system (eV)
  ---------------------------------------------------
  alpha Z        PSCENC =      2639.27042227
  Ewald energy   TEWEN  =    -69235.14656543
  -Hartree energ DENC   =    -34826.80915808
  -exchange      EXHF   =         0.00000000
  -V(xc)+E(xc)   XCENC  =      3975.70014643
  PAW double counting   =    109952.98621783  -113409.34592822
  entropy T*S    EENTRO =        -0.00000000
  eigenvalues    EBANDS =    -13269.88568347
  atomic energy  EATOM  =    113515.32941094
  ---------------------------------------------------
  free energy    TOTEN  =      -657.90113773 eV

  energy without entropy =     -657.90113773  energy(sigma->0) =     -657.90113773


--------------------------------------------------------------------------------------------------------




--------------------------------------- Iteration      1(  18)  ---------------------------------------


    POTLOK:  cpu time    0.6349: real time    0.6422
    SETDIJ:  cpu time    1.5882: real time    1.5934
    TRIAL :  cpu time  125.9763: real time  127.2253
    CORREC:  cpu time   31.7068: real time   32.2916
    CHARGE:  cpu time    7.3810: real time    7.3859
    --------------------------------------------
      LOOP:  cpu time  167.2921: real time  169.1502

 eigenvalue-minimisations  :     0
 total energy-change (2. order) :-0.1748579E-03  (-0.1328530E-03)
 number of electron     936.0000012 magnetization     144.0000005
 augmentation part      322.2157398 magnetization      94.1510587

 Free energy of the ion-electron system (eV)
  ---------------------------------------------------
  alpha Z        PSCENC =      2639.27042227
  Ewald energy   TEWEN  =    -69235.14656543
  -Hartree energ DENC   =    -34828.17576449
  -exchange      EXHF   =         0.00000000
  -V(xc)+E(xc)   XCENC  =      3975.75133449
  PAW double counting   =    109959.87098409  -113416.48851908
  entropy T*S    EENTRO =        -0.00000000
  eigenvalues    EBANDS =    -13268.31261538
  atomic energy  EATOM  =    113515.32941094
  ---------------------------------------------------
  free energy    TOTEN  =      -657.90131259 eV

  energy without entropy =     -657.90131259  energy(sigma->0) =     -657.90131259


--------------------------------------------------------------------------------------------------------




--------------------------------------- Iteration      1(  19)  ---------------------------------------


    POTLOK:  cpu time    0.6129: real time    0.6134
    SETDIJ:  cpu time    1.5750: real time    1.5824
    TRIAL :  cpu time  126.4385: real time  127.9538
    CORREC:  cpu time   31.1500: real time   31.5387
    CHARGE:  cpu time    7.3914: real time    7.4537
    --------------------------------------------
      LOOP:  cpu time  167.1771: real time  169.1530

 eigenvalue-minimisations  :     0
 total energy-change (2. order) :-0.1343207E-03  (-0.8806269E-04)
 number of electron     936.0000012 magnetization     144.0000005
 augmentation part      322.2183931 magnetization      94.1532683

 Free energy of the ion-electron system (eV)
  ---------------------------------------------------
  alpha Z        PSCENC =      2639.27042227
  Ewald energy   TEWEN  =    -69235.14656543
  -Hartree energ DENC   =    -34827.24077784
  -exchange      EXHF   =         0.00000000
  -V(xc)+E(xc)   XCENC  =      3975.71822391
  PAW double counting   =    109955.11115784  -113411.54509516
  entropy T*S    EENTRO =        -0.00000000
  eigenvalues    EBANDS =    -13269.39822344
  atomic energy  EATOM  =    113515.32941094
  ---------------------------------------------------
  free energy    TOTEN  =      -657.90144691 eV

  energy without entropy =     -657.90144691  energy(sigma->0) =     -657.90144691


--------------------------------------------------------------------------------------------------------




--------------------------------------- Iteration      1(  20)  ---------------------------------------


    POTLOK:  cpu time    0.6254: real time    0.6272
    SETDIJ:  cpu time    1.5698: real time    1.5701
    TRIAL :  cpu time  125.8231: real time  127.1249
    CORREC:  cpu time   31.6688: real time   32.2075
    CHARGE:  cpu time    7.3713: real time    7.3780
    --------------------------------------------
      LOOP:  cpu time  167.0647: real time  168.9151

 eigenvalue-minimisations  :     0
 total energy-change (2. order) :-0.8742762E-04  (-0.4324677E-04)
 number of electron     936.0000012 magnetization     144.0000005
 augmentation part      322.2150113 magnetization      94.1527347

 Free energy of the ion-electron system (eV)
  ---------------------------------------------------
  alpha Z        PSCENC =      2639.27042227
  Ewald energy   TEWEN  =    -69235.14656543
  -Hartree energ DENC   =    -34827.81061632
  -exchange      EXHF   =         0.00000000
  -V(xc)+E(xc)   XCENC  =      3975.73674225
  PAW double counting   =    109953.64846158  -113410.20451555
  entropy T*S    EENTRO =        -0.00000000
  eigenvalues    EBANDS =    -13268.72487408
  atomic energy  EATOM  =    113515.32941094
  ---------------------------------------------------
  free energy    TOTEN  =      -657.90153434 eV

  energy without entropy =     -657.90153434  energy(sigma->0) =     -657.90153434


--------------------------------------------------------------------------------------------------------




--------------------------------------- Iteration      1(  21)  ---------------------------------------


    POTLOK:  cpu time    0.6120: real time    0.6122
    SETDIJ:  cpu time    1.5825: real time    1.5830
    TRIAL :  cpu time  125.0764: real time  126.3013
    CORREC:  cpu time   31.6819: real time   32.0961
    CHARGE:  cpu time    7.3598: real time    7.3663
    --------------------------------------------
      LOOP:  cpu time  166.3390: real time  167.9858

 eigenvalue-minimisations  :     0
 total energy-change (2. order) :-0.4338557E-04  (-0.2594078E-04)
 number of electron     936.0000012 magnetization     144.0000005
 augmentation part      322.2162042 magnetization      94.1538055

 Free energy of the ion-electron system (eV)
  ---------------------------------------------------
  alpha Z        PSCENC =      2639.27042227
  Ewald energy   TEWEN  =    -69235.14656543
  -Hartree energ DENC   =    -34827.43034472
  -exchange      EXHF   =         0.00000000
  -V(xc)+E(xc)   XCENC  =      3975.72653596
  PAW double counting   =    109950.34769198  -113406.81593006
  entropy T*S    EENTRO =        -0.00000000
  eigenvalues    EBANDS =    -13269.18279866
  atomic energy  EATOM  =    113515.32941094
  ---------------------------------------------------
  free energy    TOTEN  =      -657.90157772 eV

  energy without entropy =     -657.90157772  energy(sigma->0) =     -657.90157772


--------------------------------------------------------------------------------------------------------




--------------------------------------- Iteration      1(  22)  ---------------------------------------


    POTLOK:  cpu time    0.6129: real time    0.6132
    SETDIJ:  cpu time    1.5714: real time    1.5913
    TRIAL :  cpu time  125.6514: real time  126.9877
    CORREC:  cpu time   31.2523: real time   31.5641
    CHARGE:  cpu time    7.2191: real time    7.3115
    --------------------------------------------
      LOOP:  cpu time  166.3136: real time  168.0748

 eigenvalue-minimisations  :     0
 total energy-change (2. order) :-0.2553849E-04  (-0.1537653E-04)
 number of electron     936.0000012 magnetization     144.0000005
 augmentation part      322.2151392 magnetization      94.1534539

 Free energy of the ion-electron system (eV)
  ---------------------------------------------------
  alpha Z        PSCENC =      2639.27042227
  Ewald energy   TEWEN  =    -69235.14656543
  -Hartree energ DENC   =    -34827.69157584
  -exchange      EXHF   =         0.00000000
  -V(xc)+E(xc)   XCENC  =      3975.73382697
  PAW double counting   =    109951.29426728  -113407.83648681
  entropy T*S    EENTRO =        -0.00000000
  eigenvalues    EBANDS =    -13268.85490265
  atomic energy  EATOM  =    113515.32941094
  ---------------------------------------------------
  free energy    TOTEN  =      -657.90160326 eV

  energy without entropy =     -657.90160326  energy(sigma->0) =     -657.90160326


--------------------------------------------------------------------------------------------------------




--------------------------------------- Iteration      1(  23)  ---------------------------------------


    POTLOK:  cpu time    0.6069: real time    0.6261
    SETDIJ:  cpu time    1.6006: real time    1.6024
    TRIAL :  cpu time  125.8933: real time  127.4296
    CORREC:  cpu time   31.7618: real time   32.0741
    CHARGE:  cpu time    7.3399: real time    7.4137
    --------------------------------------------
      LOOP:  cpu time  167.2138: real time  169.1582

 eigenvalue-minimisations  :     0
 total energy-change (2. order) :-0.1542097E-04  (-0.9129923E-05)
 number of electron     936.0000012 magnetization     144.0000005
 augmentation part      322.2152390 magnetization      94.1535542

 Free energy of the ion-electron system (eV)
  ---------------------------------------------------
  alpha Z        PSCENC =      2639.27042227
  Ewald energy   TEWEN  =    -69235.14656543
  -Hartree energ DENC   =    -34827.57753879
  -exchange      EXHF   =         0.00000000
  -V(xc)+E(xc)   XCENC  =      3975.73190236
  PAW double counting   =    109951.50150550  -113408.01266488
  entropy T*S    EENTRO =        -0.00000000
  eigenvalues    EBANDS =    -13268.99809066
  atomic energy  EATOM  =    113515.32941094
  ---------------------------------------------------
  free energy    TOTEN  =      -657.90161868 eV

  energy without entropy =     -657.90161868  energy(sigma->0) =     -657.90161868


--------------------------------------------------------------------------------------------------------




--------------------------------------- Iteration      1(  24)  ---------------------------------------


    POTLOK:  cpu time    0.6310: real time    0.6399
    SETDIJ:  cpu time    1.5770: real time    1.6292
    TRIAL :  cpu time  126.3198: real time  127.6458
    CORREC:  cpu time   31.3322: real time   31.5754
    CHARGE:  cpu time    7.1693: real time    7.3134
    --------------------------------------------
      LOOP:  cpu time  167.0360: real time  168.8129

 eigenvalue-minimisations  :     0
 total energy-change (2. order) :-0.9061056E-05  (-0.4908269E-05)
 number of electron     936.0000012 magnetization     144.0000005
 augmentation part      322.2149757 magnetization      94.1533697

 Free energy of the ion-electron system (eV)
  ---------------------------------------------------
  alpha Z        PSCENC =      2639.27042227
  Ewald energy   TEWEN  =    -69235.14656543
  -Hartree energ DENC   =    -34827.62079337
  -exchange      EXHF   =         0.00000000
  -V(xc)+E(xc)   XCENC  =      3975.73238915
  PAW double counting   =    109952.47595304  -113409.00320826
  entropy T*S    EENTRO =        -0.00000000
  eigenvalues    EBANDS =    -13268.93923608
  atomic energy  EATOM  =    113515.32941094
  ---------------------------------------------------
  free energy    TOTEN  =      -657.90162774 eV

  energy without entropy =     -657.90162774  energy(sigma->0) =     -657.90162774


--------------------------------------------------------------------------------------------------------




--------------------------------------- Iteration      1(  25)  ---------------------------------------


    POTLOK:  cpu time    0.6127: real time    0.6136
    SETDIJ:  cpu time    1.5741: real time    1.6143
    TRIAL :  cpu time  126.5473: real time  127.7383
    CORREC:  cpu time   31.3910: real time   31.5481
    CHARGE:  cpu time    7.2506: real time    7.3607
    --------------------------------------------
      LOOP:  cpu time  167.3851: real time  168.8847

 eigenvalue-minimisations  :     0
 total energy-change (2. order) :-0.4930364E-05  (-0.3620824E-05)
 number of electron     936.0000012 magnetization     144.0000005
 augmentation part      322.2149123 magnetization      94.1533340

 Free energy of the ion-electron system (eV)
  ---------------------------------------------------
  alpha Z        PSCENC =      2639.27042227
  Ewald energy   TEWEN  =    -69235.14656543
  -Hartree energ DENC   =    -34827.60293067
  -exchange      EXHF   =         0.00000000
  -V(xc)+E(xc)   XCENC  =      3975.73269838
  PAW double counting   =    109952.72915340  -113409.25006323
  entropy T*S    EENTRO =        -0.00000000
  eigenvalues    EBANDS =    -13268.96375833
  atomic energy  EATOM  =    113515.32941094
  ---------------------------------------------------
  free energy    TOTEN  =      -657.90163268 eV

  energy without entropy =     -657.90163268  energy(sigma->0) =     -657.90163268


--------------------------------------------------------------------------------------------------------




--------------------------------------- Iteration      1(  26)  ---------------------------------------


    POTLOK:  cpu time    0.6308: real time    0.6410
    SETDIJ:  cpu time    1.5780: real time    1.5818
    TRIAL :  cpu time  126.1007: real time  127.2558
    CORREC:  cpu time   31.4024: real time   31.6936
    CHARGE:  cpu time    7.2992: real time    7.3180
    --------------------------------------------
      LOOP:  cpu time  167.0197: real time  168.4990

 eigenvalue-minimisations  :     0
 total energy-change (2. order) :-0.3598238E-05  (-0.2978773E-05)
 number of electron     936.0000012 magnetization     144.0000005
 augmentation part      322.2147150 magnetization      94.1532398

 Free energy of the ion-electron system (eV)
  ---------------------------------------------------
  alpha Z        PSCENC =      2639.27042227
  Ewald energy   TEWEN  =    -69235.14656543
  -Hartree energ DENC   =    -34827.61279829
  -exchange      EXHF   =         0.00000000
  -V(xc)+E(xc)   XCENC  =      3975.73291898
  PAW double counting   =    109952.86350355  -113409.39007291
  entropy T*S    EENTRO =        -0.00000000
  eigenvalues    EBANDS =    -13268.94845537
  atomic energy  EATOM  =    113515.32941094
  ---------------------------------------------------
  free energy    TOTEN  =      -657.90163627 eV

  energy without entropy =     -657.90163627  energy(sigma->0) =     -657.90163627


--------------------------------------------------------------------------------------------------------




--------------------------------------- Iteration      1(  27)  ---------------------------------------


    POTLOK:  cpu time    0.6111: real time    0.6114
    SETDIJ:  cpu time    1.5928: real time    1.5935
    TRIAL :  cpu time  125.9275: real time  127.3670
    CORREC:  cpu time   31.2112: real time   31.5034
    CHARGE:  cpu time    7.2162: real time    7.3129
    --------------------------------------------
      LOOP:  cpu time  166.5648: real time  168.3946

 eigenvalue-minimisations  :     0
 total energy-change (2. order) :-0.2965869E-05  (-0.2115331E-05)
 number of electron     936.0000012 magnetization     144.0000005
 augmentation part      322.2146330 magnetization      94.1531450

 Free energy of the ion-electron system (eV)
  ---------------------------------------------------
  alpha Z        PSCENC =      2639.27042227
  Ewald energy   TEWEN  =    -69235.14656543
  -Hartree energ DENC   =    -34827.60471938
  -exchange      EXHF   =         0.00000000
  -V(xc)+E(xc)   XCENC  =      3975.73259232
  PAW double counting   =    109952.63651492  -113409.16361572
  entropy T*S    EENTRO =        -0.00000000
  eigenvalues    EBANDS =    -13268.95567917
  atomic energy  EATOM  =    113515.32941094
  ---------------------------------------------------
  free energy    TOTEN  =      -657.90163924 eV

  energy without entropy =     -657.90163924  energy(sigma->0) =     -657.90163924


--------------------------------------------------------------------------------------------------------




--------------------------------------- Iteration      1(  28)  ---------------------------------------


    POTLOK:  cpu time    0.6441: real time    0.6522
    SETDIJ:  cpu time    1.5722: real time    1.5963
    TRIAL :  cpu time  125.9712: real time  127.3030
    CORREC:  cpu time   31.5932: real time   32.1101
    CHARGE:  cpu time    7.1682: real time    7.4332
[...]
   0.929E+00 0.396E+00 0.894E+02   -.941E+00 -.401E+00 -.899E+02   0.145E-01 0.460E-02 0.516E+00
   0.650E-01 0.370E-01 0.894E+02   -.653E-01 -.367E-01 -.899E+02   0.314E-03 -.114E-02 0.514E+00
   -.799E+00 0.396E+00 0.894E+02   0.811E+00 -.401E+00 -.899E+02   -.139E-01 0.460E-02 0.516E+00
   0.646E-01 0.262E+00 0.894E+02   -.650E-01 -.264E+00 -.899E+02   0.311E-03 0.435E-02 0.514E+00
   0.652E-01 0.130E+00 0.894E+02   -.654E-01 -.131E+00 -.899E+02   0.311E-03 0.301E-02 0.514E+00
   0.652E-01 0.262E+00 0.894E+02   -.655E-01 -.264E+00 -.899E+02   0.321E-03 0.435E-02 0.514E+00
   -.806E+00 0.394E+00 0.895E+02   0.818E+00 -.399E+00 -.900E+02   -.138E-01 0.435E-02 0.512E+00
   0.650E-01 0.366E-01 0.894E+02   -.653E-01 -.364E-01 -.899E+02   0.315E-03 -.113E-02 0.514E+00
   0.936E+00 0.394E+00 0.895E+02   -.948E+00 -.399E+00 -.900E+02   0.144E-01 0.436E-02 0.512E+00
   0.689E-01 0.439E-01 0.894E+02   -.692E-01 -.441E-01 -.899E+02   0.368E-03 0.773E-04 0.514E+00
   0.611E-01 0.571E-01 0.894E+02   -.615E-01 -.573E-01 -.899E+02   0.257E-03 0.150E-04 0.514E+00
   0.650E-01 0.623E-01 0.894E+02   -.653E-01 -.625E-01 -.899E+02   0.312E-03 0.687E-04 0.514E+00
   0.612E-01 0.900E-01 0.894E+02   -.615E-01 -.903E-01 -.900E+02   0.255E-03 0.346E-03 0.514E+00
   0.734E-01 0.836E-01 0.894E+02   -.738E-01 -.839E-01 -.899E+02   0.381E-03 0.329E-03 0.514E+00
   0.604E-01 0.887E-01 0.894E+02   -.607E-01 -.890E-01 -.900E+02   0.309E-03 0.389E-03 0.514E+00
   0.651E-01 0.669E-01 0.894E+02   -.653E-01 -.669E-01 -.899E+02   0.308E-03 -.169E-03 0.514E+00
   0.603E-01 0.606E-01 0.894E+02   -.606E-01 -.605E-01 -.899E+02   0.311E-03 -.183E-03 0.514E+00
   0.696E-01 0.501E-01 0.894E+02   -.699E-01 -.499E-01 -.899E+02   0.325E-03 -.297E-03 0.514E+00
   -.669E-01 -.872E+00 -.894E+02   0.669E-01 0.878E+00 0.899E+02   -.484E-04 -.101E-01 -.514E+00
   -.671E-01 -.174E+00 -.894E+02   0.672E-01 0.175E+00 0.899E+02   -.544E-04 -.294E-02 -.514E+00
   -.674E-01 -.174E+00 -.894E+02   0.676E-01 0.175E+00 0.899E+02   -.515E-04 -.293E-02 -.514E+00
   -.674E-01 0.135E+00 -.893E+02   0.675E-01 -.136E+00 0.898E+02   -.540E-04 0.203E-02 -.512E+00
   -.216E-01 -.137E-01 -.894E+02   0.213E-01 0.133E-01 0.899E+02   0.107E-02 0.138E-02 -.512E+00
   -.112E+00 -.135E-01 -.894E+02   0.113E+00 0.131E-01 0.899E+02   -.117E-02 0.140E-02 -.512E+00
   -.674E-01 0.132E+00 -.896E+02   0.675E-01 -.133E+00 0.901E+02   -.513E-04 0.200E-02 -.516E+00
   -.113E+00 -.169E-01 -.894E+02   0.113E+00 0.165E-01 0.900E+02   -.118E-02 0.136E-02 -.516E+00
   -.216E-01 -.174E-01 -.894E+02   0.214E-01 0.170E-01 0.900E+02   0.107E-02 0.134E-02 -.516E+00
   -.189E-01 -.964E-01 -.895E+02   0.190E-01 0.972E-01 0.900E+02   -.686E-04 -.105E-02 -.515E+00
   -.680E-01 -.834E-01 -.894E+02   0.681E-01 0.840E-01 0.899E+02   -.623E-04 -.839E-03 -.514E+00
   -.115E+00 -.958E-01 -.895E+02   0.115E+00 0.965E-01 0.900E+02   -.269E-04 -.104E-02 -.515E+00
   -.680E-01 0.180E-02 -.894E+02   0.682E-01 -.222E-02 0.899E+02   -.667E-04 0.753E-03 -.514E+00
   -.664E-01 -.365E-01 -.894E+02   0.665E-01 0.360E-01 0.899E+02   -.402E-04 0.862E-03 -.514E+00
   -.672E-01 0.251E-02 -.894E+02   0.673E-01 -.292E-02 0.899E+02   -.505E-04 0.749E-03 -.514E+00
   -.115E+00 -.887E-01 -.893E+02   0.115E+00 0.894E-01 0.898E+02   -.140E-04 -.929E-03 -.513E+00
   -.672E-01 -.753E-01 -.894E+02   0.673E-01 0.759E-01 0.899E+02   -.552E-04 -.708E-03 -.514E+00
   -.196E-01 -.901E-01 -.893E+02   0.197E-01 0.908E-01 0.898E+02   -.905E-04 -.943E-03 -.513E+00
   -.464E-01 -.337E+01 -.657E+02   0.459E-01 0.336E+01 0.646E+02   0.430E-03 0.439E-01 0.111E+01
   -.454E-01 -.482E+00 -.657E+02   0.449E-01 0.499E+00 0.646E+02   0.450E-03 -.139E-01 0.111E+01
   -.489E-01 -.482E+00 -.657E+02   0.485E-01 0.499E+00 0.646E+02   0.416E-03 -.139E-01 0.111E+01
   -.475E-01 0.107E+01 -.657E+02   0.470E-01 -.109E+01 0.646E+02   0.458E-03 0.153E-01 0.111E+01
   0.126E+00 0.122E+00 -.657E+02   -.140E+00 -.141E+00 0.646E+02   0.115E-01 0.156E-01 0.111E+01
   -.220E+00 0.122E+00 -.657E+02   0.233E+00 -.141E+00 0.646E+02   -.106E-01 0.155E-01 0.111E+01
   -.475E-01 0.107E+01 -.657E+02   0.470E-01 -.109E+01 0.646E+02   0.448E-03 0.155E-01 0.111E+01
   -.222E+00 0.122E+00 -.657E+02   0.234E+00 -.141E+00 0.646E+02   -.106E-01 0.155E-01 0.111E+01
   0.127E+00 0.122E+00 -.657E+02   -.141E+00 -.141E+00 0.646E+02   0.115E-01 0.155E-01 0.111E+01
   -.208E-01 -.971E-01 -.658E+02   0.204E-01 0.966E-01 0.647E+02   0.452E-03 0.637E-03 0.111E+01
   -.604E-01 -.879E-01 -.658E+02   0.600E-01 0.873E-01 0.646E+02   0.420E-03 0.635E-03 0.111E+01
   -.605E-01 -.878E-01 -.657E+02   0.600E-01 0.872E-01 0.646E+02   0.420E-03 0.659E-03 0.111E+01
   -.603E-01 -.251E-01 -.656E+02   0.599E-01 0.237E-01 0.645E+02   0.390E-03 0.121E-02 0.111E+01
   -.340E-01 -.441E-01 -.656E+02   0.334E-01 0.428E-01 0.645E+02   0.465E-03 0.119E-02 0.111E+01
   -.472E-01 -.159E-01 -.657E+02   0.467E-01 0.145E-01 0.645E+02   0.457E-03 0.120E-02 0.111E+01
   -.602E-01 -.251E-01 -.656E+02   0.598E-01 0.240E-01 0.645E+02   0.406E-03 0.108E-02 0.112E+01
   -.472E-01 -.157E-01 -.657E+02   0.467E-01 0.146E-01 0.645E+02   0.437E-03 0.107E-02 0.111E+01
   -.340E-01 -.441E-01 -.656E+02   0.335E-01 0.430E-01 0.645E+02   0.467E-03 0.101E-02 0.112E+01
   0.576E+00 0.581E-01 0.663E+02   -.577E+00 -.557E-01 -.652E+02   -.510E-03 -.256E-02 -.110E+01
   0.499E-01 -.168E-02 0.657E+02   -.488E-01 0.499E-02 -.646E+02   -.980E-03 -.274E-02 -.111E+01
   -.476E+00 0.589E-01 0.663E+02   0.478E+00 -.564E-01 -.652E+02   -.139E-02 -.255E-02 -.110E+01
   0.493E-01 0.353E+00 0.657E+02   -.483E-01 -.358E+00 -.646E+02   -.961E-03 0.401E-02 -.111E+01
   0.504E-01 0.156E+00 0.657E+02   -.493E-01 -.162E+00 -.646E+02   -.988E-03 0.458E-02 -.111E+01
   0.496E-01 0.353E+00 0.657E+02   -.486E-01 -.358E+00 -.646E+02   -.962E-03 0.401E-02 -.111E+01
   -.478E+00 0.469E-01 0.651E+02   0.481E+00 -.443E-01 -.639E+02   -.139E-02 -.268E-02 -.113E+01
   0.493E-01 -.961E-02 0.656E+02   -.482E-01 0.130E-01 -.645E+02   -.988E-03 -.277E-02 -.112E+01
   0.577E+00 0.466E-01 0.651E+02   -.577E+00 -.440E-01 -.639E+02   -.582E-03 -.268E-02 -.113E+01
   0.948E-01 0.911E-01 0.656E+02   -.937E-01 -.913E-01 -.645E+02   -.104E-02 0.902E-05 -.112E+01
   0.467E-02 0.952E-01 0.656E+02   -.370E-02 -.954E-01 -.645E+02   -.904E-03 0.111E-04 -.112E+01
   0.496E-01 0.188E+00 0.655E+02   -.486E-01 -.188E+00 -.644E+02   -.985E-03 0.271E-03 -.112E+01
   0.467E-02 0.114E+00 0.658E+02   -.361E-02 -.115E+00 -.646E+02   -.932E-03 0.150E-03 -.111E+01
   0.969E-01 0.112E+00 0.658E+02   -.959E-01 -.113E+00 -.646E+02   -.990E-03 0.127E-03 -.111E+01
   0.481E-01 0.205E+00 0.659E+02   -.471E-01 -.206E+00 -.648E+02   -.984E-03 0.383E-03 -.111E+01
   0.501E-01 -.658E-01 0.657E+02   -.490E-01 0.681E-01 -.645E+02   -.992E-03 -.179E-02 -.111E+01
   0.477E-01 -.679E-01 0.657E+02   -.467E-01 0.702E-01 -.646E+02   -.961E-03 -.178E-02 -.111E+01
   0.517E-01 -.301E+00 0.657E+02   -.507E-01 0.301E+00 -.646E+02   -.962E-03 0.343E-03 -.111E+01
 -----------------------------------------------------------------------------------------------
   0.283E-01 -.947E-01 0.119E-02   -.925E-13 -.435E-12 0.981E-12   -.207E-01 0.870E-01 -.110E-02
 
 
 POSITION                                       TOTAL-FORCE (eV/Angst)
 -----------------------------------------------------------------------------------
      1.72948      0.20030     -0.00150         0.000027      0.002954     -0.000010
      5.58834      0.20099     -0.00468         0.000042      0.000339     -0.000010
      9.44720      0.20168     -0.00786         0.000064      0.002950     -0.000007
      1.72882      4.05917     -0.00468         0.000110     -0.001029      0.000770
      5.58768      4.05986     -0.00786         0.000050     -0.000221      0.000090
      9.44654      4.06055     -0.01104        -0.000028     -0.001040      0.000796
      1.72816      7.91804     -0.00786        -0.000010     -0.001053     -0.000774
      5.58702      7.91872     -0.01104         0.000045     -0.000242     -0.000089
      9.44588      7.91941     -0.01422         0.000099     -0.001052     -0.000758
     -0.19436     -1.72421      6.38168         0.000036      0.000551     -0.000140
      3.66450     -1.72352      6.37850         0.000097      0.000137      0.000088
      7.52337     -1.72284      6.37532         0.000002      0.000148      0.000054
     -0.19502      2.13465      6.37850         0.000058      0.000489      0.000136
      3.66384      2.13534      6.37532        -0.000010      0.000094     -0.000065
      7.52270      2.13603      6.37214         0.000088      0.000069     -0.000059
     -0.19568      5.99352      6.37532         0.000052     -0.000496     -0.000032
      3.66318      5.99421      6.37214         0.000027     -0.000417     -0.000017
      7.52204      5.99490      6.36896         0.000043     -0.000409     -0.000029
      1.73466      0.20548      6.37832         0.000048     -0.000050      0.000039
      5.59352      0.20617      6.37514         0.000062     -0.000021      0.000027
      9.45239      0.20686      6.37196         0.000055     -0.000055      0.000021
      1.73400      4.06435      6.37514         0.000004     -0.000095     -0.000281
      5.59286      4.06504      6.37196         0.000039     -0.000024     -0.000323
      9.45172      4.06573      6.36877         0.000116     -0.000092     -0.000329
      1.73334      7.92322      6.37196         0.000098     -0.000081      0.000310
      5.59220      7.92391      6.36877         0.000055      0.000011      0.000293
      9.45106      7.92460      6.36559         0.000011     -0.000059      0.000266
     -0.18918     -1.71903     12.76150        -0.000800      0.000388      0.001194
      3.66968     -1.71834     12.75832         0.000915      0.000402      0.001202
      7.52855     -1.71765     12.75514         0.000046     -0.003960      0.007121
     -0.18984      2.13984     12.75832         0.000056     -0.000577     -0.000017
      3.66902      2.14052     12.75514         0.000046     -0.000584      0.000015
      7.52788      2.14121     12.75195         0.000061     -0.000644      0.000009
     -0.19050      5.99870     12.75514         0.000907      0.000389     -0.001205
      3.66836      5.99939     12.75195        -0.000804      0.000389     -0.001190
      7.52722      6.00008     12.74877         0.000046     -0.003993     -0.007153
      3.65889      0.20059     -0.00318         0.000015     -0.001669     -0.000098
      7.51775      0.20128     -0.00636         0.000001     -0.001667     -0.000072
     11.37662      0.20197     -0.00954         0.000006     -0.007267      0.000126
      3.65823      4.05946     -0.00636         0.000877      0.001138     -0.002016
      7.51709      4.06015     -0.00954        -0.000857      0.001151     -0.001815
     11.37595      4.06083     -0.01272        -0.000007      0.001455     -0.001739
      3.65757      7.91832     -0.00954        -0.000808      0.001174      0.001953
      7.51643      7.91901     -0.01272         0.000828      0.001158      0.002053
     11.37529      7.91970     -0.01590         0.000002      0.001482      0.002020
      1.73505     -1.72393      6.38000         0.000236     -0.000517     -0.000454
      5.59392     -1.72324      6.37682         0.000016     -0.000386     -0.000246
      9.45278     -1.72255      6.37364        -0.000213     -0.000517     -0.000743
      1.73439      2.13494      6.37682        -0.000232     -0.000455      0.000714
      5.59325      2.13563      6.37364        -0.000011     -0.000292      0.000193
      9.45211      2.13632      6.37046         0.000256     -0.000458      0.000570
      1.73373      5.99381      6.37364         0.000003      0.000493      0.000060
      5.59259      5.99450      6.37046         0.000002      0.000681     -0.000023
      9.45145      5.99519      6.36727         0.000001      0.000509     -0.000126
      1.73069      2.13130      1.90875         0.001485     -0.000751      0.001415
      5.58955      2.13198      1.90557         0.000012     -0.000745      0.000236
      9.44841      2.13267      1.90239        -0.001644     -0.000699      0.001483
      1.73003      5.99016      1.90557        -0.000102      0.002076      0.000106
      5.58889      5.99085      1.90239         0.000031      0.001537      0.000126
      9.44775      5.99154      1.89920        -0.000065      0.002050      0.000184
      1.72937      9.84903      1.90239        -0.001447     -0.000965     -0.001206
      5.58823      9.84972      1.89920        -0.000009     -0.000830      0.000013
      9.44709      9.85041      1.89602         0.001306     -0.000981     -0.001131
     -0.19315      0.20678      8.29193         0.000033     -0.000093      0.000166
      3.66571      0.20747      8.28875        -0.000145     -0.000113      0.000158
      7.52457      0.20816      8.28557        -0.000033     -0.000053      0.000050
     -0.19381      4.06565      8.28875        -0.000028      0.000061      0.000229
      3.66505      4.06634      8.28557        -0.000062      0.000069      0.000195
      7.52391      4.06702      8.28238        -0.000041      0.000082      0.000213
     -0.19447      7.92451      8.28557         0.000020     -0.000045     -0.000003
      3.66439      7.92520      8.28238        -0.000113     -0.000046      0.000034
      7.52325      7.92589      8.27920        -0.000053     -0.000118     -0.000044
     -0.19633      0.20360      4.46807        -0.000029     -0.003557     -0.000195
      3.66253      0.20429      4.46489         0.000044     -0.001387     -0.000100
      7.52140      0.20498      4.46171         0.000077     -0.001385     -0.000137
     -0.19699      4.06247      4.46489        -0.000036      0.001188      0.000878
      3.66187      4.06316      4.46171         0.000680      0.001007      0.000915
      7.52073      4.06384      4.45853        -0.000544      0.001014      0.000807
     -0.19765      7.92133      4.46171        -0.000043      0.001183     -0.001186
      3.66121      7.92202      4.45853        -0.000582      0.001004     -0.001111
      7.52007      7.92271      4.45535         0.000702      0.001003     -0.001179
     -2.12017     -1.72091     10.85125         0.000038     -0.000229     -0.000854
      1.73869     -1.72023     10.84807         0.000019     -0.000121     -0.000471
      5.59756     -1.71954     10.84489         0.000025     -0.000236     -0.000843
     -2.12083      2.13795     10.84807         0.000078      0.000375     -0.000119
      1.73803      2.13864     10.84489         0.000013      0.000406     -0.000132
      5.59689      2.13933     10.84171        -0.000006      0.000375     -0.000075
     -2.12149      5.99682     10.84489         0.000135     -0.000151      0.000610
      1.73737      5.99751     10.84171         0.000030     -0.000005      0.000100
      5.59623      5.99820     10.83853        -0.000066     -0.000132      0.000611
     -0.19826      0.19165      2.04034        -0.000128      0.027730      0.000017
      3.66060      0.20234      2.03715        -0.000081      0.003507     -0.000008
      7.51947      0.20302      2.03397        -0.000075      0.003517      0.000063
     -0.19892      4.06051      2.03715        -0.000147     -0.004697     -0.000104
      3.65994      4.06120      2.03397        -0.002254     -0.003416     -0.000123
      7.51880      4.06189      2.03079         0.002164     -0.003383     -0.000120
     -0.19958      7.91938      2.03397        -0.000133     -0.004744      0.000108
      3.65928      7.92007      2.03079         0.002119     -0.003415      0.000110
      7.51814      7.92076      2.02760        -0.002244     -0.003437      0.000143
     -2.12210     -1.72287      8.42351        -0.000053      0.000137      0.000525
      1.73676     -1.72218      8.42033        -0.000092      0.000134      0.000409
      5.59563     -1.72149      8.41715        -0.000140      0.000129      0.000436
     -2.12276      2.13600      8.42033        -0.000059     -0.000151     -0.000222
      1.73610      2.13669      8.41715        -0.000113     -0.000122     -0.000227
      5.59496      2.13738      8.41396        -0.000087     -0.000151     -0.000181
     -2.12342      5.99486      8.41715        -0.000052     -0.000006     -0.000371
      1.73544      5.99555      8.41396        -0.000092      0.000038     -0.000228
      5.59430      5.99624      8.41078        -0.000118      0.000030     -0.000369
      1.73264      2.13323      4.33649        -0.001067     -0.000039     -0.004966
      5.59151      2.13392      4.33331         0.000046      0.000615     -0.000567
      9.45037      2.13460      4.33013         0.001035     -0.000004     -0.005024
      1.73198      5.99209      4.33331        -0.000033     -0.001024      0.000025
      5.59084      5.99278      4.33013         0.000044     -0.001123     -0.000013
      9.44970      5.99347      4.32695         0.000015     -0.001017     -0.000029
      1.73132      9.85096      4.33013         0.001008     -0.000014      0.005021
      5.59018      9.85165      4.32695         0.000037      0.000620      0.000629
      9.44904      9.85234      4.32377        -0.001047     -0.000008      0.005036
     -0.19120      0.20871     10.71967        -0.000010     -0.000121      0.000675
      3.66767      0.20940     10.71649        -0.000003     -0.000151      0.000668
      7.52653      0.21009     10.71331         0.000002     -0.000152      0.000817
     -0.19186      4.06758     10.71649         0.000065     -0.000166     -0.000759
      3.66700      4.06827     10.71331        -0.000065     -0.000161     -0.000754
      7.52586      4.06896     10.71013         0.000013     -0.000203     -0.000846
     -0.19252      7.92644     10.71331         0.000033      0.000560      0.000055
      3.66634      7.92713     10.71013        -0.000026      0.000569      0.000023
      7.52520      7.92782     10.70695        -0.000008      0.000202      0.000104
 -----------------------------------------------------------------------------------
    total drift:                                0.007641     -0.007685      0.000087


--------------------------------------------------------------------------------------------------------



  FREE ENERGIE OF THE ION-ELECTRON SYSTEM (eV)
  ---------------------------------------------------
  free  energy   TOTEN  =      -657.90164625 eV

  energy  without entropy=     -657.90164625  energy(sigma->0) =     -657.90164625
 


--------------------------------------------------------------------------------------------------------


    POTLOK:  cpu time    2.3325: real time    2.4101


--------------------------------------------------------------------------------------------------------


     LOOP+:  cpu time 6400.1990: real time 6470.6420
    4ORBIT:  cpu time    0.0000: real time    0.0000

 total amount of memory used by VASP MPI-rank0  2010615. kBytes
=======================================================================

   base      :      30000. kBytes
   nonl-proj :      83483. kBytes
   fftplans  :      59337. kBytes
   grid      :      50429. kBytes
   one-center:        653. kBytes
   wavefun   :    1786713. kBytes
 
  
  
 General timing and accounting informations for this job:
 ========================================================
  
                  Total CPU time used (sec):     6511.131
                            User time (sec):     6430.758
                          System time (sec):       80.373
                         Elapsed time (sec):     6583.752
  
                   Maximum memory used (kb):     2461992.
                   Average memory used (kb):           0.
  
                          Minor page faults:      1137824
                          Major page faults:           23
                 Voluntary context switches:        69675
