<?xml version="1.0" encoding="ISO-8859-1"?>
<modeling>
 <generator>
  <i name="program" type="string">vasp </i>
  <i name="version" type="string">5.4.4.18Apr17-6-g9f103f2a35  </i>
  <i name="subversion" type="string">(build Oct 25 2017 14:42:18) complex            parallel </i>
  <i name="platform" type="string">LinuxIFC </i>
  <i name="date" type="string">2021 04 17 </i>
  <i name="time" type="string">04:36:02 </i>
 </generator>
 <incar>
  <i type="string" name="PREC">accurate</i>
  <i type="string" name="ALGO"> all</i>
  <i type="logical" name="ADDGRID"> T  </i>
  <i type="int" name="ISPIN">     2</i>
  <i type="int" name="ICHARG">     1</i>
  <i type="int" name="NELM">   200</i>
  <i type="int" name="NELMIN">     8</i>
  <i name="EDIFF">      0.00000100</i>
  <i type="int" name="ISIF">     3</i>
  <i type="int" name="ISYM">     0</i>
  <i name="ENCUT">    650.00000000</i>
  <v name="MAGMOM">      0.60000000      0.60000000      0.60000000      0.60000000      0.60000000      0.60000000      0.60000000      0.60000000      0.60000000      0.60000000      0.60000000      0.60000000      0.60000000      0.60000000      0.60000000      0.60000000      0.60000000      0.60000000      0.60000000      0.60000000
      0.60000000      0.60000000      0.60000000      0.60000000      0.60000000      0.60000000      0.60000000      0.60000000      0.60000000      0.60000000      0.60000000      0.60000000      0.60000000      0.60000000      0.60000000      0.60000000      0.60000000      0.60000000      0.60000000      0.60000000
      0.60000000      0.60000000      0.60000000      0.60000000      0.60000000      0.60000000      0.60000000      0.60000000      0.60000000      0.60000000      0.60000000      0.60000000      0.60000000      0.60000000      0.60000000      0.60000000      0.60000000      0.60000000      0.60000000      0.60000000
      0.60000000      0.60000000      0.60000000      0.60000000      0.60000000      0.60000000      0.60000000      0.60000000      0.60000000      0.60000000      0.60000000      0.60000000      0.60000000      0.60000000      0.60000000      0.60000000      0.60000000      0.60000000      0.60000000      0.60000000
      0.60000000      0.60000000      0.60000000      0.60000000      0.60000000      0.60000000      0.60000000      0.60000000      0.60000000      0.60000000      5.00000000      5.00000000      5.00000000      5.00000000      5.00000000      5.00000000      5.00000000      5.00000000      5.00000000      5.00000000
      5.00000000      5.00000000      5.00000000      5.00000000      5.00000000      5.00000000      5.00000000      5.00000000      5.00000000      5.00000000      5.00000000      5.00000000      5.00000000      5.00000000      5.00000000      5.00000000      5.00000000      5.00000000      5.00000000      5.00000000
      5.00000000      5.00000000      5.00000000      5.00000000      5.00000000      5.00000000</v>
  <i type="logical" name="LREAL"> F  </i>
  <i type="int" name="ISMEAR">     0</i>
  <i name="SIGMA">      0.05000000</i>
  <i type="int" name="NWRITE">     1</i>
  <i type="int" name="LMAXMIX">     4</i>
  <i type="logical" name="LWAVE"> F  </i>
  <i type="logical" name="LASPH"> T  </i>
  <v type="int" name="KPOINT_BSE">    -1     0     0     0</v>
  <i type="int" name="NELM">   200</i>
  <i type="string" name="GGA"> pe</i>
  <i type="logical" name="LDAU"> T  </i>
  <v type="int" name="LDAUTYPE">     2</v>
  <v type="int" name="LDAUL">    -1    -1    -1     2</v>
  <v name="LDAUU">      0.00000000      0.00000000      0.00000000      4.00000000</v>
  <v name="LDAUJ">      0.00000000      0.00000000      0.00000000      0.00000000</v>
  <i type="logical" name="LASPH"> T  </i>
 </incar>
 <structure name="primitive_cell" >
  <crystal>
   <varray name="basis" >
    <v>      11.57658324       0.00206628      -0.00954291 </v>
    <v>      -0.00198552      11.57659983      -0.00954294 </v>
    <v>      -3.84767942      -3.84903072      12.76635918 </v>
   </varray>
   <i name="volume">   1710.06494320 </i>
   <varray name="rec_basis" >
    <v>       0.08640274       0.00003629       0.02605204 </v>
    <v>       0.00000605       0.08640263       0.02605204 </v>
    <v>       0.00006459       0.00006461       0.07836982 </v>
   </varray>
  </crystal>
  <varray name="positions" >
   <v>       0.14940024       0.01727802       0.00000711 </v>
   <v>       0.31606288       0.01727079       0.00000000 </v>
   <v>      -0.01727046       0.01727079       0.00000000 </v>
   <v>       0.19934057       0.23388678       0.14983771 </v>
   <v>       0.19934057      -0.09944656       0.14983771 </v>
   <v>       0.09944656       0.13399276      -0.14983771 </v>
   <v>       0.09944656      -0.19934057      -0.14983771 </v>
   <v>       0.31605532       0.18393310      -0.00000711 </v>
   <v>      -0.01727802       0.18393310      -0.00000711 </v>
   <v>       0.31605532      -0.14940024      -0.00000711 </v>
   <v>      -0.01727802      -0.14940024      -0.00000711 </v>
   <v>       0.36936541       0.07057630       0.15990038 </v>
   <v>       0.03603208       0.06971249       0.15990038 </v>
   <v>       0.26275703      -0.03603208      -0.15990038 </v>
   <v>      -0.07057630      -0.03603208      -0.15990038 </v>
   <v>       0.48273357       0.01727802       0.00000711 </v>
   <v>      -0.18393310       0.01727802       0.00000711 </v>
   <v>       0.14940024       0.35061135       0.00000711 </v>
   <v>       0.14940024      -0.31605532       0.00000711 </v>
   <v>      -0.01727046       0.35060413       0.00000000 </v>
   <v>       0.31606288       0.35060413       0.00000000 </v>
   <v>       0.31606288      -0.31606254       0.00000000 </v>
   <v>      -0.01727046      -0.31606254       0.00000000 </v>
   <v>      -0.46732609      -0.09944656       0.14983771 </v>
   <v>      -0.46732609       0.23388678       0.14983771 </v>
   <v>      -0.13399276       0.23388678       0.14983771 </v>
   <v>       0.43277989       0.13399276      -0.14983771 </v>
   <v>       0.43277989      -0.19934057      -0.14983771 </v>
   <v>      -0.13399276      -0.09944656       0.14983771 </v>
   <v>      -0.23388678       0.13399276      -0.14983771 </v>
   <v>      -0.23388678      -0.19934057      -0.14983771 </v>
   <v>       0.26275703       0.29730125       0.34009962 </v>
   <v>       0.26275703      -0.03603208       0.34009962 </v>
   <v>       0.03603208      -0.26275703      -0.34009962 </v>
   <v>       0.03603208       0.07057630      -0.34009962 </v>
   <v>       0.26275703       0.29730125      -0.15990038 </v>
   <v>       0.36936541      -0.26275703       0.15990038 </v>
   <v>       0.03603208       0.40390964       0.15990038 </v>
   <v>       0.03603208      -0.26275703       0.15990038 </v>
   <v>       0.36936541       0.40390964       0.15990038 </v>
   <v>      -0.07057630       0.29730125      -0.15990038 </v>
   <v>       0.26275703      -0.36936541      -0.15990038 </v>
   <v>      -0.07057630      -0.36936541      -0.15990038 </v>
   <v>       0.43277989       0.13399276       0.35016229 </v>
   <v>       0.09944656       0.13399276       0.35016229 </v>
   <v>       0.19934057      -0.09944656      -0.35016229 </v>
   <v>      -0.13399276      -0.09944656      -0.35016229 </v>
   <v>      -0.18393310       0.35061135       0.00000711 </v>
   <v>       0.48273357      -0.31605532       0.00000711 </v>
   <v>       0.48273357       0.35061135       0.00000711 </v>
   <v>      -0.18393310      -0.31605532       0.00000711 </v>
   <v>      -0.35060379       0.01727079       0.00000000 </v>
   <v>       0.19934057      -0.43277989       0.14983771 </v>
   <v>       0.09944656       0.46732609      -0.14983771 </v>
   <v>      -0.35061135       0.18393310      -0.00000711 </v>
   <v>       0.31605532      -0.48273357      -0.00000711 </v>
   <v>      -0.35061135      -0.14940024      -0.00000711 </v>
   <v>      -0.01727802      -0.48273357      -0.00000711 </v>
   <v>      -0.40390964       0.29730125       0.34009962 </v>
   <v>      -0.40390964      -0.03603208       0.34009962 </v>
   <v>      -0.07057630       0.29730125       0.34009962 </v>
   <v>      -0.07057630      -0.03603208       0.34009962 </v>
   <v>      -0.29730125       0.07057630      -0.34009962 </v>
   <v>       0.36936541      -0.26275703      -0.34009962 </v>
   <v>      -0.29730125      -0.26275703      -0.34009962 </v>
   <v>       0.36936541       0.07057630      -0.34009962 </v>
   <v>      -0.40390964      -0.03603208      -0.15990038 </v>
   <v>      -0.29730125       0.07057630       0.15990038 </v>
   <v>       0.43277989       0.46732609       0.35016229 </v>
   <v>       0.09944656       0.46732609       0.35016229 </v>
   <v>       0.43277989      -0.19934057       0.35016229 </v>
   <v>       0.09944656      -0.19934057       0.35016229 </v>
   <v>       0.19934057       0.23388678      -0.35016229 </v>
   <v>       0.19934057      -0.43277989      -0.35016229 </v>
   <v>      -0.13399276       0.23388678      -0.35016229 </v>
   <v>      -0.13399276      -0.43277989      -0.35016229 </v>
   <v>       0.31605532       0.18393310       0.49999289 </v>
   <v>      -0.01727802      -0.14940024       0.49999289 </v>
   <v>       0.31606288       0.35060413      -0.50000000 </v>
   <v>       0.31606288       0.01727079      -0.50000000 </v>
   <v>      -0.01727046       0.01727079      -0.50000000 </v>
   <v>      -0.01727046      -0.31606254      -0.50000000 </v>
   <v>       0.48273357       0.01727802      -0.49999289 </v>
   <v>      -0.18393310       0.01727802      -0.49999289 </v>
   <v>       0.14940024       0.35061135      -0.49999289 </v>
   <v>       0.14940024      -0.31605532      -0.49999289 </v>
   <v>       0.14940024       0.01727802      -0.49999289 </v>
   <v>       0.48273357       0.35061135      -0.49999289 </v>
   <v>      -0.18393310      -0.31605532      -0.49999289 </v>
   <v>      -0.35060379       0.35060413       0.00000000 </v>
   <v>      -0.35060379      -0.31606254       0.00000000 </v>
   <v>      -0.46732609      -0.43277989       0.14983771 </v>
   <v>      -0.13399276      -0.43277989       0.14983771 </v>
   <v>       0.43277989       0.46732609      -0.14983771 </v>
   <v>      -0.23388678       0.46732609      -0.14983771 </v>
   <v>       0.26275703      -0.36936541       0.34009962 </v>
   <v>       0.03603208       0.40390964      -0.34009962 </v>
   <v>      -0.40390964       0.29730125      -0.15990038 </v>
   <v>      -0.29730125       0.40390964       0.15990038 </v>
   <v>      -0.29730125      -0.26275703       0.15990038 </v>
   <v>      -0.40390964      -0.36936541      -0.15990038 </v>
   <v>      -0.23388678       0.13399276       0.35016229 </v>
   <v>      -0.46732609      -0.09944656      -0.35016229 </v>
   <v>      -0.35061135       0.18393310       0.49999289 </v>
   <v>       0.31605532      -0.48273357       0.49999289 </v>
   <v>      -0.01727802       0.18393310       0.49999289 </v>
   <v>       0.31605532      -0.14940024       0.49999289 </v>
   <v>      -0.35061135      -0.14940024       0.49999289 </v>
   <v>      -0.01727802      -0.48273357       0.49999289 </v>
   <v>      -0.35060379       0.35060413      -0.50000000 </v>
   <v>      -0.01727046       0.35060413      -0.50000000 </v>
   <v>      -0.35060379       0.01727079      -0.50000000 </v>
   <v>       0.31606288      -0.31606254      -0.50000000 </v>
   <v>      -0.35060379      -0.31606254      -0.50000000 </v>
   <v>      -0.35061135      -0.48273357      -0.00000711 </v>
   <v>      -0.40390964      -0.36936541       0.34009962 </v>
   <v>      -0.07057630      -0.36936541       0.34009962 </v>
   <v>      -0.29730125       0.40390964      -0.34009962 </v>
   <v>       0.36936541       0.40390964      -0.34009962 </v>
   <v>      -0.23388678      -0.19934057       0.35016229 </v>
   <v>      -0.23388678       0.46732609       0.35016229 </v>
   <v>      -0.46732609      -0.43277989      -0.35016229 </v>
   <v>      -0.46732609       0.23388678      -0.35016229 </v>
   <v>      -0.35061135      -0.48273357       0.49999289 </v>
   <v>       0.48273357      -0.31605532      -0.49999289 </v>
   <v>      -0.18393310       0.35061135      -0.49999289 </v>
  </varray>
 </structure>
 <varray name="primitive_index" >
  <v type="int" >        1 </v>
  <v type="int" >       37 </v>
  <v type="int" >       39 </v>
  <v type="int" >       55 </v>
  <v type="int" >       61 </v>
  <v type="int" >       82 </v>
  <v type="int" >       88 </v>
  <v type="int" >       28 </v>
  <v type="int" >       30 </v>
  <v type="int" >       34 </v>
  <v type="int" >       36 </v>
  <v type="int" >       92 </v>
  <v type="int" >       91 </v>
  <v type="int" >      124 </v>
  <v type="int" >      126 </v>
  <v type="int" >        2 </v>
  <v type="int" >        3 </v>
  <v type="int" >        4 </v>
  <v type="int" >        7 </v>
  <v type="int" >       42 </v>
  <v type="int" >       40 </v>
  <v type="int" >       43 </v>
  <v type="int" >       45 </v>
  <v type="int" >       62 </v>
  <v type="int" >       56 </v>
  <v type="int" >       57 </v>
  <v type="int" >       83 </v>
  <v type="int" >       89 </v>
  <v type="int" >       63 </v>
  <v type="int" >       84 </v>
  <v type="int" >       90 </v>
  <v type="int" >      109 </v>
  <v type="int" >      115 </v>
  <v type="int" >      106 </v>
  <v type="int" >      100 </v>
  <v type="int" >      118 </v>
  <v type="int" >       98 </v>
  <v type="int" >       94 </v>
  <v type="int" >       97 </v>
  <v type="int" >       95 </v>
  <v type="int" >      120 </v>
  <v type="int" >      121 </v>
  <v type="int" >      123 </v>
  <v type="int" >       74 </v>
  <v type="int" >       73 </v>
  <v type="int" >       70 </v>
  <v type="int" >       72 </v>
  <v type="int" >        6 </v>
  <v type="int" >        8 </v>
  <v type="int" >        5 </v>
  <v type="int" >        9 </v>
  <v type="int" >       38 </v>
  <v type="int" >       58 </v>
  <v type="int" >       85 </v>
  <v type="int" >       29 </v>
  <v type="int" >       31 </v>
  <v type="int" >       35 </v>
  <v type="int" >       33 </v>
  <v type="int" >      110 </v>
  <v type="int" >      116 </v>
  <v type="int" >      111 </v>
  <v type="int" >      117 </v>
  <v type="int" >      102 </v>
  <v type="int" >      107 </v>
  <v type="int" >      108 </v>
  <v type="int" >      101 </v>
  <v type="int" >      125 </v>
  <v type="int" >       93 </v>
  <v type="int" >       77 </v>
  <v type="int" >       76 </v>
  <v type="int" >       80 </v>
  <v type="int" >       79 </v>
  <v type="int" >       64 </v>
  <v type="int" >       67 </v>
  <v type="int" >       66 </v>
  <v type="int" >       69 </v>
  <v type="int" >       19 </v>
  <v type="int" >       27 </v>
  <v type="int" >       49 </v>
  <v type="int" >       46 </v>
  <v type="int" >       48 </v>
  <v type="int" >       54 </v>
  <v type="int" >       11 </v>
  <v type="int" >       12 </v>
  <v type="int" >       13 </v>
  <v type="int" >       16 </v>
  <v type="int" >       10 </v>
  <v type="int" >       14 </v>
  <v type="int" >       18 </v>
  <v type="int" >       41 </v>
  <v type="int" >       44 </v>
  <v type="int" >       59 </v>
  <v type="int" >       60 </v>
  <v type="int" >       86 </v>
  <v type="int" >       87 </v>
  <v type="int" >      112 </v>
  <v type="int" >      103 </v>
  <v type="int" >      119 </v>
  <v type="int" >       96 </v>
  <v type="int" >       99 </v>
  <v type="int" >      122 </v>
  <v type="int" >       75 </v>
  <v type="int" >       71 </v>
  <v type="int" >       20 </v>
  <v type="int" >       22 </v>
  <v type="int" >       21 </v>
  <v type="int" >       25 </v>
  <v type="int" >       26 </v>
  <v type="int" >       24 </v>
  <v type="int" >       50 </v>
  <v type="int" >       51 </v>
  <v type="int" >       47 </v>
  <v type="int" >       52 </v>
  <v type="int" >       53 </v>
  <v type="int" >       32 </v>
  <v type="int" >      113 </v>
  <v type="int" >      114 </v>
  <v type="int" >      105 </v>
  <v type="int" >      104 </v>
  <v type="int" >       81 </v>
  <v type="int" >       78 </v>
  <v type="int" >       68 </v>
  <v type="int" >       65 </v>
  <v type="int" >       23 </v>
  <v type="int" >       17 </v>
  <v type="int" >       15 </v>
 </varray>
 <kpoints>
  <generation param="Gamma">
   <v type="int" name="divisions">       3        3        2 </v>
   <v name="usershift">      0.00000000       0.00000000       0.00000000 </v>
   <v name="genvec1">      0.33333333       0.00000000       0.00000000 </v>
   <v name="genvec2">     -0.00000000       0.33333333       0.00000000 </v>
   <v name="genvec3">      0.00000000      -0.00000000       0.50000000 </v>
   <v name="shift">      0.00000000       0.00000000       0.00000000 </v>
  </generation>
  <varray name="kpointlist" >
   <v>       0.00000000       0.00000000       0.00000000 </v>
   <v>       0.33333333       0.00000000      -0.00000000 </v>
   <v>      -0.00000000       0.33333333       0.00000000 </v>
   <v>       0.33333333       0.33333333      -0.00000000 </v>
   <v>      -0.33333333       0.33333333       0.00000000 </v>
   <v>       0.00000000      -0.00000000       0.50000000 </v>
   <v>       0.33333333      -0.00000000       0.50000000 </v>
   <v>       0.00000000       0.33333333       0.50000000 </v>
   <v>       0.33333333       0.33333333       0.50000000 </v>
   <v>      -0.33333333       0.33333333       0.50000000 </v>
  </varray>
  <varray name="weights" >
   <v>       0.05555556 </v>
   <v>       0.11111111 </v>
   <v>       0.11111111 </v>
   <v>       0.11111111 </v>
   <v>       0.11111111 </v>
   <v>       0.05555556 </v>
   <v>       0.11111111 </v>
   <v>       0.11111111 </v>
   <v>       0.11111111 </v>
   <v>       0.11111111 </v>
  </varray>
 </kpoints>
 <parameters>
  <separator name="general" >
   <i type="string" name="SYSTEM">unknown system</i>
   <i type="logical" name="LCOMPAT"> F  </i>
  </separator>
  <separator name="electronic" >
   <i type="string" name="PREC">accura</i>
   <i name="ENMAX">    650.00000000</i>
   <i name="ENAUG">    628.94500000</i>
   <i name="EDIFF">      0.00000100</i>
   <i type="int" name="IALGO">    58</i>
   <i type="int" name="IWAVPR">    10</i>
   <i type="int" name="NBANDS">   680</i>
   <i name="NELECT">    936.00000000</i>
   <i type="int" name="TURBO">     0</i>
   <i type="int" name="IRESTART">     0</i>
   <i type="int" name="NREBOOT">     0</i>
   <i type="int" name="NMIN">     0</i>
   <i name="EREF">      0.00000000</i>
   <separator name="electronic smearing" >
    <i type="int" name="ISMEAR">     0</i>
    <i name="SIGMA">      0.05000000</i>
    <i name="KSPACING">      0.50000000</i>
    <i type="logical" name="KGAMMA"> T  </i>
   </separator>
   <separator name="electronic projectors" >
    <i type="logical" name="LREAL"> F  </i>
    <v name="ROPT">      0.00000000      0.00000000      0.00000000      0.00000000</v>
    <i type="int" name="LMAXPAW">  -100</i>
    <i type="int" name="LMAXMIX">     4</i>
    <i type="logical" name="NLSPLINE"> F  </i>
   </separator>
   <separator name="electronic startup" >
    <i type="int" name="ISTART">     0</i>
    <i type="int" name="ICHARG">     1</i>
    <i type="int" name="INIWAV">     1</i>
   </separator>
   <separator name="electronic spin" >
    <i type="int" name="ISPIN">     2</i>
    <i type="logical" name="LNONCOLLINEAR"> F  </i>
    <v name="MAGMOM">      0.60000000      0.60000000      0.60000000      0.60000000      0.60000000      0.60000000      0.60000000      0.60000000      0.60000000      0.60000000      0.60000000      0.60000000      0.60000000      0.60000000      0.60000000      0.60000000      0.60000000      0.60000000      0.60000000      0.60000000
      0.60000000      0.60000000      0.60000000      0.60000000      0.60000000      0.60000000      0.60000000      0.60000000      0.60000000      0.60000000      0.60000000      0.60000000      0.60000000      0.60000000      0.60000000      0.60000000      0.60000000      0.60000000      0.60000000      0.60000000
      0.60000000      0.60000000      0.60000000      0.60000000      0.60000000      0.60000000      0.60000000      0.60000000      0.60000000      0.60000000      0.60000000      0.60000000      0.60000000      0.60000000      0.60000000      0.60000000      0.60000000      0.60000000      0.60000000      0.60000000
      0.60000000      0.60000000      0.60000000      0.60000000      0.60000000      0.60000000      0.60000000      0.60000000      0.60000000      0.60000000      0.60000000      0.60000000      0.60000000      0.60000000      0.60000000      0.60000000      0.60000000      0.60000000      0.60000000      0.60000000
      0.60000000      0.60000000      0.60000000      0.60000000      0.60000000      0.60000000      0.60000000      0.60000000      0.60000000      0.60000000      5.00000000      5.00000000      5.00000000      5.00000000      5.00000000      5.00000000      5.00000000      5.00000000      5.00000000      5.00000000
      5.00000000      5.00000000      5.00000000      5.00000000      5.00000000      5.00000000      5.00000000      5.00000000      5.00000000      5.00000000      5.00000000      5.00000000      5.00000000      5.00000000      5.00000000      5.00000000      5.00000000      5.00000000      5.00000000      5.00000000
      5.00000000      5.00000000      5.00000000      5.00000000      5.00000000      5.00000000</v>
    <i name="NUPDOWN">     -1.00000000</i>
    <i type="logical" name="LSORBIT"> F  </i>
    <v name="SAXIS">      0.00000000      0.00000000      1.00000000</v>
    <i type="logical" name="LSPIRAL"> F  </i>
    <v name="QSPIRAL">      0.00000000      0.00000000      0.00000000</v>
    <i type="logical" name="LZEROZ"> F  </i>
   </separator>
   <separator name="electronic exchange-correlation" >
    <i type="logical" name="LASPH"> T  </i>
    <i type="logical" name="LMETAGGA"> F  </i>
   </separator>
   <separator name="electronic convergence" >
    <i type="int" name="NELM">   200</i>
    <i type="int" name="NELMDL">     0</i>
    <i type="int" name="NELMIN">     8</i>
    <i name="ENINI">    650.00000000</i>
    <separator name="electronic convergence detail" >
     <i type="logical" name="LDIAG"> T  </i>
     <i type="logical" name="LSUBROT"> F  </i>
     <i name="WEIMIN">      0.00000000</i>
     <i name="EBREAK">      0.00000000</i>
     <i name="DEPER">      0.30000000</i>
     <i type="int" name="NRMM">     4</i>
     <i name="TIME">      0.40000000</i>
    </separator>
   </separator>
   <separator name="electronic mixer" >
    <i name="AMIX">      0.40000000</i>
    <i name="BMIX">      1.00000000</i>
    <i name="AMIN">      0.10000000</i>
    <i name="AMIX_MAG">      1.60000000</i>
    <i name="BMIX_MAG">      1.00000000</i>
    <separator name="electronic mixer details" >
     <i type="int" name="IMIX">     4</i>
     <i type="logical" name="MIXFIRST"> F  </i>
     <i type="int" name="MAXMIX">   -45</i>
     <i name="WC">    100.00000000</i>
     <i type="int" name="INIMIX">     1</i>
     <i type="int" name="MIXPRE">     1</i>
     <i type="int" name="MREMOVE">     5</i>
    </separator>
   </separator>
   <separator name="electronic dipolcorrection" >
    <i type="logical" name="LDIPOL"> F  </i>
    <i type="logical" name="LMONO"> F  </i>
    <i type="int" name="IDIPOL">     0</i>
    <i name="EPSILON">      1.00000000</i>
    <v name="DIPOL">   -100.00000000   -100.00000000   -100.00000000</v>
    <i name="EFIELD">      0.00000000</i>
   </separator>
  </separator>
  <separator name="grids" >
   <i type="int" name="NGX">    96</i>
   <i type="int" name="NGY">    96</i>
   <i type="int" name="NGZ">   120</i>
   <i type="int" name="NGXF">   192</i>
   <i type="int" name="NGYF">   192</i>
   <i type="int" name="NGZF">   240</i>
   <i type="logical" name="ADDGRID"> T  </i>
  </separator>
  <separator name="ionic" >
   <i type="int" name="NSW">     0</i>
   <i type="int" name="IBRION">    -1</i>
   <i type="int" name="MDALGO">     0</i>
   <i type="int" name="ISIF">     3</i>
   <i name="PSTRESS">      0.00000000</i>
   <i name="EDIFFG">      0.00001000</i>
   <i type="int" name="NFREE">     0</i>
   <i name="POTIM">      0.50000000</i>
   <i name="SMASS">     -3.00000000</i>
   <i name="SCALEE">      1.00000000</i>
  </separator>
  <separator name="ionic md" >
   <i name="TEBEG">      0.00010000</i>
   <i name="TEEND">      0.00010000</i>
   <i type="int" name="NBLOCK">     1</i>
   <i type="int" name="KBLOCK">     1</i>
   <i type="int" name="NPACO">   256</i>
   <i name="APACO">     16.00000000</i>
  </separator>
  <separator name="symmetry" >
   <i type="int" name="ISYM">     0</i>
   <i name="SYMPREC">      0.00001000</i>
  </separator>
  <separator name="dos" >
   <i type="int" name="LORBIT">     0</i>
   <v name="RWIGS">     -1.00000000     -1.00000000     -1.00000000     -1.00000000</v>
   <i type="int" name="NEDOS">   301</i>
   <i name="EMIN">     10.00000000</i>
   <i name="EMAX">    -10.00000000</i>
   <i name="EFERMI">      0.00000000</i>
  </separator>
  <separator name="writing" >
   <i type="int" name="NWRITE">     1</i>
   <i type="logical" name="LWAVE"> F  </i>
   <i type="logical" name="LDOWNSAMPLE"> F  </i>
   <i type="logical" name="LCHARG"> T  </i>
   <i type="logical" name="LPARD"> F  </i>
   <i type="logical" name="LVTOT"> F  </i>
   <i type="logical" name="LVHAR"> F  </i>
   <i type="logical" name="LELF"> F  </i>
   <i type="logical" name="LOPTICS"> F  </i>
   <v name="STM">      0.00000000      0.00000000      0.00000000      0.00000000      0.00000000      0.00000000      0.00000000</v>
  </separator>
  <separator name="performance" >
   <i type="int" name="NPAR">     4</i>
   <i type="int" name="NSIM">     4</i>
   <i type="int" name="NBLK">    -1</i>
   <i type="logical" name="LPLANE"> T  </i>
   <i type="logical" name="LSCALAPACK"> T  </i>
   <i type="logical" name="LSCAAWARE"> F  </i>
   <i type="logical" name="LSCALU"> F  </i>
   <i type="logical" name="LASYNC"> F  </i>
   <i type="logical" name="LORBITALREAL"> F  </i>
  </separator>
  <separator name="miscellaneous" >
   <i type="int" name="IDIOT">     3</i>
   <i type="int" name="ISPECIAL">     0</i>
   <i type="logical" name="LMUSIC"> F  </i>
   <v name="POMASS">      7.01000000     16.00000000     32.06600000     55.84700000</v>
   <v name="DARWINR">      0.00000000      0.00000000      0.00000000      0.00000000</v>
   <v name="DARWINV">      1.00000000      1.00000000      1.00000000      1.00000000</v>
   <i type="logical" name="LCORR"> T  </i>
  </separator>
  <i type="logical" name="GGA_COMPAT"> T  </i>
  <i type="logical" name="LBERRY"> F  </i>
  <i type="int" name="ICORELEVEL">     0</i>
  <i type="logical" name="LDAU"> T  </i>
  <v type="int" name="LDAUTYPE">     2</v>
  <v type="int" name="LDAUL">    -1</v>
  <v name="LDAUU">      0.00000000</v>
  <v name="LDAUJ">      0.00000000</v>
  <i type="int" name="LDAUPRINT">     0</i>
  <i type="int" name="I_CONSTRAINED_M">     0</i>
  <separator name="electronic exchange-correlation" >
   <i type="string" name="GGA">PE</i>
   <i type="int" name="VOSKOWN">     0</i>
   <i type="logical" name="LHFCALC"> F  </i>
   <i type="string" name="PRECFOCK"></i>
   <i type="logical" name="LSYMGRAD"> F  </i>
   <i type="logical" name="LHFONE"> F  </i>
   <i type="logical" name="LRHFCALC"> F  </i>
   <i type="logical" name="LTHOMAS"> F  </i>
   <i type="logical" name="LMODELHF"> F  </i>
   <i name="ENCUT4O">     -1.00000000</i>
   <i type="int" name="EXXOEP">     0</i>
   <i type="int" name="FOURORBIT">     0</i>
   <i name="AEXX">      0.00000000</i>
   <i name="HFALPHA">      0.00000000</i>
   <i name="MCALPHA">      0.00000000</i>
   <i name="ALDAX">      1.00000000</i>
   <i name="AGGAX">      1.00000000</i>
   <i name="ALDAC">      1.00000000</i>
   <i name="AGGAC">      1.00000000</i>
   <i type="int" name="NKREDX">     1</i>
   <i type="int" name="NKREDY">     1</i>
   <i type="int" name="NKREDZ">     1</i>
   <i type="logical" name="SHIFTRED"> F  </i>
   <i type="logical" name="ODDONLY"> F  </i>
   <i type="logical" name="EVENONLY"> F  </i>
   <i type="int" name="LMAXFOCK">     0</i>
   <i type="int" name="NMAXFOCKAE">     0</i>
   <i type="logical" name="LFOCKAEDFT"> F  </i>
   <i name="HFSCREEN">      0.00000000</i>
   <i name="HFSCREENC">      0.00000000</i>
   <i type="int" name="NBANDSGWLOW">     0</i>
  </separator>
  <separator name="vdW DFT" >
   <i type="logical" name="LUSE_VDW"> F  </i>
   <i name="Zab_VDW">     -0.84910000</i>
   <i name="PARAM1">      0.12340000</i>
   <i name="PARAM2">      1.00000000</i>
   <i name="PARAM3">      0.00000000</i>
  </separator>
  <separator name="model GW" >
   <i type="int" name="MODEL_GW">     0</i>
   <i name="MODEL_EPS0">      8.14316640</i>
   <i name="MODEL_ALPHA">      1.00000000</i>
  </separator>
  <separator name="linear response parameters" >
   <i type="logical" name="LEPSILON"> F  </i>
   <i type="logical" name="LRPA"> F  </i>
   <i type="logical" name="LNABLA"> F  </i>
   <i type="logical" name="LVEL"> F  </i>
   <i type="int" name="KINTER">     0</i>
   <i name="CSHIFT">      0.10000000</i>
   <i name="OMEGAMAX">     -1.00000000</i>
   <i name="DEG_THRESHOLD">      0.00200000</i>
   <i name="RTIME">     -0.10000000</i>
   <i name="WPLASMAI">      0.00000000</i>
   <v name="DFIELD">      0.00000000      0.00000000      0.00000000</v>
   <v name="WPLASMA">      0.00000000      0.00000000      0.00000000      0.00000000      0.00000000      0.00000000      0.00000000      0.00000000      0.00000000</v>
  </separator>
  <separator name="orbital magnetization" >
   <i type="logical" name="NUCIND"> F  </i>
   <v name="MAGPOS">      0.00000000      0.00000000      0.00000000</v>
   <i type="logical" name="LNICSALL"> T  </i>
   <i type="logical" name="ORBITALMAG"> F  </i>
   <i type="logical" name="LMAGBLOCH"> F  </i>
   <i type="logical" name="LCHIMAG"> F  </i>
   <i type="logical" name="LGAUGE"> T  </i>
   <i type="int" name="MAGATOM">     0</i>
   <v name="MAGDIPOL">      0.00000000      0.00000000      0.00000000</v>
   <v name="AVECCONST">      0.00000000      0.00000000      0.00000000</v>
  </separator>
  <separator name="response functions" >
   <i type="logical" name="LADDER"> F  </i>
   <i type="logical" name="LRPAFORCE"> F  </i>
   <i type="logical" name="LFXC"> F  </i>
   <i type="logical" name="LHARTREE"> T  </i>
   <i type="int" name="IBSE">     0</i>
   <v type="int" name="KPOINT">    -1     0     0     0</v>
   <i type="logical" name="LTCTE"> F  </i>
   <i type="logical" name="LTETE"> F  </i>
   <i type="logical" name="LTRIPLET"> F  </i>
   <i type="logical" name="LFXCEPS"> F  </i>
   <i type="logical" name="LFXHEG"> F  </i>
   <i type="int" name="NATURALO">     2</i>
   <i type="logical" name="L2ORDER"> F  </i>
   <i type="logical" name="LMP2LT"> F  </i>
   <i type="logical" name="LUSEW"> F  </i>
   <i name="ENCUTGW">     -2.00000000</i>
   <i name="ENCUTGWSOFT">     -2.00000000</i>
   <i name="ENCUTLF">     -1.00000000</i>
   <i type="int" name="LMAXMP2">    -1</i>
   <i name="SCISSOR">      0.00000000</i>
   <i type="int" name="NOMEGA">     0</i>
   <i type="int" name="NOMEGAR">     0</i>
   <i type="int" name="NBANDSGW">    -1</i>
   <i type="int" name="NBANDSO">    -1</i>
   <i type="int" name="NBANDSV">    -1</i>
   <i type="int" name="NELM">   200</i>
   <i type="int" name="NELMHF">     1</i>
   <i type="int" name="DIM">     3</i>
   <i type="int" name="ANTIRES">     0</i>
   <i name="OMEGAMAX">    -30.00000000</i>
   <i name="OMEGAMIN">    -30.00000000</i>
   <i name="OMEGATL">   -200.00000000</i>
   <i type="int" name="OMEGAGRID">   140</i>
   <i name="CSHIFT">     -0.10000000</i>
   <i type="logical" name="SELFENERGY"> F  </i>
   <i type="logical" name="LSPECTRAL"> F  </i>
   <i type="logical" name="LSPECTRALGW"> F  </i>
   <i type="logical" name="LSINGLES"> F  </i>
   <i type="logical" name="LFERMIGW"> F  </i>
   <i type="logical" name="ODDONLYGW"> F  </i>
   <i type="logical" name="EVENONLYGW"> F  </i>
   <i type="int" name="NKREDLFX">     1</i>
   <i type="int" name="NKREDLFY">     1</i>
   <i type="int" name="NKREDLFZ">     1</i>
   <i type="int" name="MAXMEM">  2800</i>
   <i type="int" name="TELESCOPE">     0</i>
   <i type="int" name="TAUPAR">     1</i>
   <i type="int" name="OMEGAPAR">    -1</i>
   <i name="LAMBDA">      1.00000000</i>
  </separator>
  <separator name="External order field" >
   <i name="OFIELD_KAPPA">      0.00000000</i>
   <v name="OFIELD_K">      0.00000000      0.00000000      0.00000000</v>
   <i name="OFIELD_Q6_NEAR">      0.00000000</i>
   <i name="OFIELD_Q6_FAR">      0.00000000</i>
   <i name="OFIELD_A">      0.00000000</i>
  </separator>
 </parameters>
 <atominfo>
  <atoms>     126 </atoms>
  <types>       4 </types>
  <array name="atoms" >
   <dimension dim="1">ion</dimension>
   <field type="string">element</field>
   <field type="int">atomtype</field>
   <set>
    <rc><c>Li</c><c>   1</c></rc>
    <rc><c>Li</c><c>   1</c></rc>
    <rc><c>Li</c><c>   1</c></rc>
    <rc><c>Li</c><c>   1</c></rc>
    <rc><c>Li</c><c>   1</c></rc>
    <rc><c>Li</c><c>   1</c></rc>
    <rc><c>Li</c><c>   1</c></rc>
    <rc><c>Li</c><c>   1</c></rc>
    <rc><c>Li</c><c>   1</c></rc>
    <rc><c>Li</c><c>   1</c></rc>
    <rc><c>Li</c><c>   1</c></rc>
    <rc><c>Li</c><c>   1</c></rc>
    <rc><c>Li</c><c>   1</c></rc>
    <rc><c>Li</c><c>   1</c></rc>
    <rc><c>Li</c><c>   1</c></rc>
    <rc><c>Li</c><c>   1</c></rc>
    <rc><c>Li</c><c>   1</c></rc>
    <rc><c>Li</c><c>   1</c></rc>
    <rc><c>Li</c><c>   1</c></rc>
    <rc><c>Li</c><c>   1</c></rc>
    <rc><c>Li</c><c>   1</c></rc>
    <rc><c>Li</c><c>   1</c></rc>
    <rc><c>Li</c><c>   1</c></rc>
    <rc><c>Li</c><c>   1</c></rc>
    <rc><c>Li</c><c>   1</c></rc>
    <rc><c>Li</c><c>   1</c></rc>
    <rc><c>Li</c><c>   1</c></rc>
    <rc><c>Li</c><c>   1</c></rc>
    <rc><c>Li</c><c>   1</c></rc>
    <rc><c>Li</c><c>   1</c></rc>
    <rc><c>Li</c><c>   1</c></rc>
    <rc><c>Li</c><c>   1</c></rc>
    <rc><c>Li</c><c>   1</c></rc>
    <rc><c>Li</c><c>   1</c></rc>
    <rc><c>Li</c><c>   1</c></rc>
    <rc><c>Li</c><c>   1</c></rc>
    <rc><c>O </c><c>   2</c></rc>
    <rc><c>O </c><c>   2</c></rc>
    <rc><c>O </c><c>   2</c></rc>
    <rc><c>O </c><c>   2</c></rc>
    <rc><c>O </c><c>   2</c></rc>
    <rc><c>O </c><c>   2</c></rc>
    <rc><c>O </c><c>   2</c></rc>
    <rc><c>O </c><c>   2</c></rc>
    <rc><c>O </c><c>   2</c></rc>
    <rc><c>O </c><c>   2</c></rc>
    <rc><c>O </c><c>   2</c></rc>
    <rc><c>O </c><c>   2</c></rc>
    <rc><c>O </c><c>   2</c></rc>
    <rc><c>O </c><c>   2</c></rc>
    <rc><c>O </c><c>   2</c></rc>
    <rc><c>O </c><c>   2</c></rc>
    <rc><c>O </c><c>   2</c></rc>
    <rc><c>O </c><c>   2</c></rc>
    <rc><c>S </c><c>   3</c></rc>
    <rc><c>S </c><c>   3</c></rc>
    <rc><c>S </c><c>   3</c></rc>
    <rc><c>S </c><c>   3</c></rc>
    <rc><c>S </c><c>   3</c></rc>
    <rc><c>S </c><c>   3</c></rc>
    <rc><c>S </c><c>   3</c></rc>
    <rc><c>S </c><c>   3</c></rc>
    <rc><c>S </c><c>   3</c></rc>
    <rc><c>S </c><c>   3</c></rc>
    <rc><c>S </c><c>   3</c></rc>
    <rc><c>S </c><c>   3</c></rc>
    <rc><c>S </c><c>   3</c></rc>
    <rc><c>S </c><c>   3</c></rc>
    <rc><c>S </c><c>   3</c></rc>
    <rc><c>S </c><c>   3</c></rc>
    <rc><c>S </c><c>   3</c></rc>
    <rc><c>S </c><c>   3</c></rc>
    <rc><c>S </c><c>   3</c></rc>
    <rc><c>S </c><c>   3</c></rc>
    <rc><c>S </c><c>   3</c></rc>
    <rc><c>S </c><c>   3</c></rc>
    <rc><c>S </c><c>   3</c></rc>
    <rc><c>S </c><c>   3</c></rc>
    <rc><c>S </c><c>   3</c></rc>
    <rc><c>S </c><c>   3</c></rc>
    <rc><c>S </c><c>   3</c></rc>
    <rc><c>S </c><c>   3</c></rc>
    <rc><c>S </c><c>   3</c></rc>
    <rc><c>S </c><c>   3</c></rc>
    <rc><c>S </c><c>   3</c></rc>
    <rc><c>S </c><c>   3</c></rc>
    <rc><c>S </c><c>   3</c></rc>
    <rc><c>S </c><c>   3</c></rc>
    <rc><c>S </c><c>   3</c></rc>
    <rc><c>S </c><c>   3</c></rc>
    <rc><c>Fe</c><c>   4</c></rc>
    <rc><c>Fe</c><c>   4</c></rc>
    <rc><c>Fe</c><c>   4</c></rc>
    <rc><c>Fe</c><c>   4</c></rc>
    <rc><c>Fe</c><c>   4</c></rc>
    <rc><c>Fe</c><c>   4</c></rc>
    <rc><c>Fe</c><c>   4</c></rc>
    <rc><c>Fe</c><c>   4</c></rc>
    <rc><c>Fe</c><c>   4</c></rc>
    <rc><c>Fe</c><c>   4</c></rc>
    <rc><c>Fe</c><c>   4</c></rc>
    <rc><c>Fe</c><c>   4</c></rc>
    <rc><c>Fe</c><c>   4</c></rc>
    <rc><c>Fe</c><c>   4</c></rc>
    <rc><c>Fe</c><c>   4</c></rc>
    <rc><c>Fe</c><c>   4</c></rc>
    <rc><c>Fe</c><c>   4</c></rc>
    <rc><c>Fe</c><c>   4</c></rc>
    <rc><c>Fe</c><c>   4</c></rc>
    <rc><c>Fe</c><c>   4</c></rc>
    <rc><c>Fe</c><c>   4</c></rc>
    <rc><c>Fe</c><c>   4</c></rc>
    <rc><c>Fe</c><c>   4</c></rc>
    <rc><c>Fe</c><c>   4</c></rc>
    <rc><c>Fe</c><c>   4</c></rc>
    <rc><c>Fe</c><c>   4</c></rc>
    <rc><c>Fe</c><c>   4</c></rc>
    <rc><c>Fe</c><c>   4</c></rc>
    <rc><c>Fe</c><c>   4</c></rc>
    <rc><c>Fe</c><c>   4</c></rc>
    <rc><c>Fe</c><c>   4</c></rc>
    <rc><c>Fe</c><c>   4</c></rc>
    <rc><c>Fe</c><c>   4</c></rc>
    <rc><c>Fe</c><c>   4</c></rc>
    <rc><c>Fe</c><c>   4</c></rc>
    <rc><c>Fe</c><c>   4</c></rc>
   </set>
  </array>
  <array name="atomtypes" >
   <dimension dim="1">type</dimension>
   <field type="int">atomspertype</field>
   <field type="string">element</field>
   <field>mass</field>
   <field>valence</field>
   <field type="string">pseudopotential</field>
   <set>
    <rc><c>  36</c><c>Li</c><c>      7.01000000</c><c>      3.00000000</c><c>  PAW_PBE Li_sv 10Sep2004               </c></rc>
    <rc><c>  18</c><c>O </c><c>     16.00000000</c><c>      6.00000000</c><c>  PAW_PBE O 08Apr2002                   </c></rc>
    <rc><c>  36</c><c>S </c><c>     32.06600000</c><c>      6.00000000</c><c>  PAW_PBE S 06Sep2000                   </c></rc>
    <rc><c>  36</c><c>Fe</c><c>     55.84700000</c><c>     14.00000000</c><c>  PAW_PBE Fe_pv 02Aug2007               </c></rc>
   </set>
  </array>
 </atominfo>
 <structure name="initialpos" >
  <crystal>
   <varray name="basis" >
    <v>      11.57658324       0.00206628      -0.00954291 </v>
    <v>      -0.00198552      11.57659983      -0.00954294 </v>
    <v>      -3.84767942      -3.84903072      12.76635918 </v>
   </varray>
   <i name="volume">   1710.06494320 </i>
   <varray name="rec_basis" >
    <v>       0.08640274       0.00003629       0.02605204 </v>
    <v>       0.00000605       0.08640263       0.02605204 </v>
    <v>       0.00006459       0.00006461       0.07836982 </v>
   </varray>
  </crystal>
  <varray name="positions" >
   <v>       0.14940024       0.01727802       0.00000711 </v>
   <v>       0.48273357       0.01727802       0.00000711 </v>
   <v>       0.81606690       0.01727802       0.00000711 </v>
   <v>       0.14940024       0.35061135       0.00000711 </v>
   <v>       0.48273357       0.35061135       0.00000711 </v>
   <v>       0.81606690       0.35061135       0.00000711 </v>
   <v>       0.14940024       0.68394468       0.00000711 </v>
   <v>       0.48273357       0.68394468       0.00000711 </v>
   <v>       0.81606690       0.68394468       0.00000711 </v>
   <v>       0.14940024       0.01727802       0.50000711 </v>
   <v>       0.48273357       0.01727802       0.50000711 </v>
   <v>       0.81606690       0.01727802       0.50000711 </v>
   <v>       0.14940024       0.35061135       0.50000711 </v>
   <v>       0.48273357       0.35061135       0.50000711 </v>
   <v>       0.81606690       0.35061135       0.50000711 </v>
   <v>       0.14940024       0.68394468       0.50000711 </v>
   <v>       0.48273357       0.68394468       0.50000711 </v>
   <v>       0.81606690       0.68394468       0.50000711 </v>
   <v>       0.31605532       0.18393310       0.49999289 </v>
   <v>       0.64938865       0.18393310       0.49999289 </v>
   <v>       0.98272198       0.18393310       0.49999289 </v>
   <v>       0.31605532       0.51726643       0.49999289 </v>
   <v>       0.64938865       0.51726643       0.49999289 </v>
   <v>       0.98272198       0.51726643       0.49999289 </v>
   <v>       0.31605532       0.85059976       0.49999289 </v>
   <v>       0.64938865       0.85059976       0.49999289 </v>
   <v>       0.98272198       0.85059976       0.49999289 </v>
   <v>       0.31605532       0.18393310       0.99999289 </v>
   <v>       0.64938865       0.18393310       0.99999289 </v>
   <v>       0.98272198       0.18393310       0.99999289 </v>
   <v>       0.31605532       0.51726643       0.99999289 </v>
   <v>       0.64938865       0.51726643       0.99999289 </v>
   <v>       0.98272198       0.51726643       0.99999289 </v>
   <v>       0.31605532       0.85059976       0.99999289 </v>
   <v>       0.64938865       0.85059976       0.99999289 </v>
   <v>       0.98272198       0.85059976       0.99999289 </v>
   <v>       0.31606288       0.01727079       0.00000000 </v>
   <v>       0.64939621       0.01727079       0.00000000 </v>
   <v>       0.98272954       0.01727079       0.00000000 </v>
   <v>       0.31606288       0.35060413       0.00000000 </v>
   <v>       0.64939621       0.35060413       0.00000000 </v>
   <v>       0.98272954       0.35060413       0.00000000 </v>
   <v>       0.31606288       0.68393746       0.00000000 </v>
   <v>       0.64939621       0.68393746       0.00000000 </v>
   <v>       0.98272954       0.68393746       0.00000000 </v>
   <v>       0.31606288       0.01727079       0.50000000 </v>
   <v>       0.64939621       0.01727079       0.50000000 </v>
   <v>       0.98272954       0.01727079       0.50000000 </v>
   <v>       0.31606288       0.35060413       0.50000000 </v>
   <v>       0.64939621       0.35060413       0.50000000 </v>
   <v>       0.98272954       0.35060413       0.50000000 </v>
   <v>       0.31606288       0.68393746       0.50000000 </v>
   <v>       0.64939621       0.68393746       0.50000000 </v>
   <v>       0.98272954       0.68393746       0.50000000 </v>
   <v>       0.19934057       0.23388678       0.14983771 </v>
   <v>       0.53267391       0.23388678       0.14983771 </v>
   <v>       0.86600724       0.23388678       0.14983771 </v>
   <v>       0.19934057       0.56722011       0.14983771 </v>
   <v>       0.53267391       0.56722011       0.14983771 </v>
   <v>       0.86600724       0.56722011       0.14983771 </v>
   <v>       0.19934057       0.90055344       0.14983771 </v>
   <v>       0.53267391       0.90055344       0.14983771 </v>
   <v>       0.86600724       0.90055344       0.14983771 </v>
   <v>       0.19934057       0.23388678       0.64983771 </v>
   <v>       0.53267391       0.23388678       0.64983771 </v>
   <v>       0.86600724       0.23388678       0.64983771 </v>
   <v>       0.19934057       0.56722011       0.64983771 </v>
   <v>       0.53267391       0.56722011       0.64983771 </v>
   <v>       0.86600724       0.56722011       0.64983771 </v>
   <v>       0.19934057       0.90055344       0.64983771 </v>
   <v>       0.53267391       0.90055344       0.64983771 </v>
   <v>       0.86600724       0.90055344       0.64983771 </v>
   <v>       0.09944656       0.13399276       0.35016229 </v>
   <v>       0.43277989       0.13399276       0.35016229 </v>
   <v>       0.76611322       0.13399276       0.35016229 </v>
   <v>       0.09944656       0.46732609       0.35016229 </v>
   <v>       0.43277989       0.46732609       0.35016229 </v>
   <v>       0.76611322       0.46732609       0.35016229 </v>
   <v>       0.09944656       0.80065943       0.35016229 </v>
   <v>       0.43277989       0.80065943       0.35016229 </v>
   <v>       0.76611322       0.80065943       0.35016229 </v>
   <v>       0.09944656       0.13399276       0.85016229 </v>
   <v>       0.43277989       0.13399276       0.85016229 </v>
   <v>       0.76611322       0.13399276       0.85016229 </v>
   <v>       0.09944656       0.46732609       0.85016229 </v>
   <v>       0.43277989       0.46732609       0.85016229 </v>
   <v>       0.76611322       0.46732609       0.85016229 </v>
   <v>       0.09944656       0.80065943       0.85016229 </v>
   <v>       0.43277989       0.80065943       0.85016229 </v>
   <v>       0.76611322       0.80065943       0.85016229 </v>
   <v>       0.03603208       0.06971249       0.15990037 </v>
   <v>       0.36936541       0.07057630       0.15990037 </v>
   <v>       0.70269875       0.07057630       0.15990037 </v>
   <v>       0.03603208       0.40390964       0.15990037 </v>
   <v>       0.36936541       0.40390964       0.15990037 </v>
   <v>       0.70269875       0.40390964       0.15990037 </v>
   <v>       0.03603208       0.73724297       0.15990037 </v>
   <v>       0.36936541       0.73724297       0.15990037 </v>
   <v>       0.70269875       0.73724297       0.15990037 </v>
   <v>       0.03603208       0.07057630       0.65990037 </v>
   <v>       0.36936541       0.07057630       0.65990037 </v>
   <v>       0.70269875       0.07057630       0.65990037 </v>
   <v>       0.03603208       0.40390964       0.65990037 </v>
   <v>       0.36936541       0.40390964       0.65990037 </v>
   <v>       0.70269875       0.40390964       0.65990037 </v>
   <v>       0.03603208       0.73724297       0.65990037 </v>
   <v>       0.36936541       0.73724297       0.65990037 </v>
   <v>       0.70269875       0.73724297       0.65990037 </v>
   <v>       0.26275703       0.29730125       0.34009963 </v>
   <v>       0.59609036       0.29730125       0.34009963 </v>
   <v>       0.92942370       0.29730125       0.34009963 </v>
   <v>       0.26275703       0.63063459       0.34009963 </v>
   <v>       0.59609036       0.63063459       0.34009963 </v>
   <v>       0.92942370       0.63063459       0.34009963 </v>
   <v>       0.26275703       0.96396792       0.34009963 </v>
   <v>       0.59609036       0.96396792       0.34009963 </v>
   <v>       0.92942370       0.96396792       0.34009963 </v>
   <v>       0.26275703       0.29730125       0.84009963 </v>
   <v>       0.59609036       0.29730125       0.84009963 </v>
   <v>       0.92942370       0.29730125       0.84009963 </v>
   <v>       0.26275703       0.63063459       0.84009963 </v>
   <v>       0.59609036       0.63063459       0.84009963 </v>
   <v>       0.92942370       0.63063459       0.84009963 </v>
   <v>       0.26275703       0.96396792       0.84009963 </v>
   <v>       0.59609036       0.96396792       0.84009963 </v>
   <v>       0.92942370       0.96396792       0.84009963 </v>
  </varray>
 </structure>
 <calculation>
  <scstep>
   <time name="total">  256.54  259.31</time>
   <energy>
    <i name="alphaZ">   2639.27042227 </i>
    <i name="ewald"> -69235.14656543 </i>
    <i name="hartreedc"> -34827.60467407 </i>
    <i name="XCdc">   3975.73409511 </i>
    <i name="pawpsdc"> 109952.41695739 </i>
    <i name="pawaedc">-113408.94482908 </i>
    <i name="eentropy">     -0.02328876 </i>
    <i name="bandstr">     37.49864962 </i>
    <i name="atom"> 113515.32941094 </i>
    <i name="e_fr_energy">  12648.53017799 </i>
    <i name="e_wo_entrp">  12648.55346675 </i>
    <i name="e_0_energy">  12648.54182237 </i>
   </energy>
  </scstep>
  <scstep>
   <time name="total">  245.94  248.68</time>
   <energy>
    <i name="e_fr_energy">   1374.96873779 </i>
    <i name="e_wo_entrp">   1375.05009591 </i>
    <i name="e_0_energy">   1375.00941685 </i>
   </energy>
  </scstep>
  <scstep>
   <time name="total">  265.51  268.27</time>
   <energy>
    <i name="e_fr_energy">   -410.57947918 </i>
    <i name="e_wo_entrp">   -410.57947918 </i>
    <i name="e_0_energy">   -410.57947918 </i>
   </energy>
  </scstep>
  <scstep>
   <time name="total">  287.12  289.86</time>
   <energy>
    <i name="e_fr_energy">   -632.80670172 </i>
    <i name="e_wo_entrp">   -632.80670172 </i>
    <i name="e_0_energy">   -632.80670172 </i>
   </energy>
  </scstep>
  <scstep>
   <time name="total">  381.13  385.31</time>
   <energy>
    <i name="e_fr_energy">   -656.93262524 </i>
    <i name="e_wo_entrp">   -656.93262524 </i>
    <i name="e_0_energy">   -656.93262524 </i>
   </energy>
  </scstep>
  <scstep>
   <time name="total">  166.57  168.61</time>
   <energy>
    <i name="e_fr_energy">   -656.88760641 </i>
    <i name="e_wo_entrp">   -656.88760641 </i>
    <i name="e_0_energy">   -656.88760641 </i>
   </energy>
  </scstep>
  <scstep>
   <time name="total">  166.11  168.27</time>
   <energy>
    <i name="e_fr_energy">   -657.40673868 </i>
    <i name="e_wo_entrp">   -657.40673868 </i>
    <i name="e_0_energy">   -657.40673868 </i>
   </energy>
  </scstep>
  <scstep>
   <time name="total">  165.92  168.03</time>
   <energy>
    <i name="e_fr_energy">   -657.70886843 </i>
    <i name="e_wo_entrp">   -657.70886843 </i>
    <i name="e_0_energy">   -657.70886843 </i>
   </energy>
  </scstep>
  <scstep>
   <time name="total">  166.17  168.14</time>
   <energy>
    <i name="e_fr_energy">   -657.82871762 </i>
    <i name="e_wo_entrp">   -657.82871762 </i>
    <i name="e_0_energy">   -657.82871762 </i>
   </energy>
  </scstep>
  <scstep>
   <time name="total">  167.92  169.99</time>
   <energy>
    <i name="e_fr_energy">   -657.87309167 </i>
    <i name="e_wo_entrp">   -657.87309167 </i>
    <i name="e_0_energy">   -657.87309167 </i>
   </energy>
  </scstep>
  <scstep>
   <time name="total">  167.76  169.61</time>
   <energy>
    <i name="e_fr_energy">   -657.89030928 </i>
    <i name="e_wo_entrp">   -657.89030928 </i>
    <i name="e_0_energy">   -657.89030928 </i>
   </energy>
  </scstep>
  <scstep>
   <time name="total">  167.27  169.52</time>
   <energy>
    <i name="e_fr_energy">   -657.89567205 </i>
    <i name="e_wo_entrp">   -657.89567205 </i>
    <i name="e_0_energy">   -657.89567205 </i>
   </energy>
  </scstep>
  <scstep>
   <time name="total">  167.08  169.07</time>
   <energy>
    <i name="e_fr_energy">   -657.89816314 </i>
    <i name="e_wo_entrp">   -657.89816314 </i>
    <i name="e_0_energy">   -657.89816314 </i>
   </energy>
  </scstep>
  <scstep>
   <time name="total">  165.64  167.87</time>
   <energy>
    <i name="e_fr_energy">   -657.89959869 </i>
    <i name="e_wo_entrp">   -657.89959869 </i>
    <i name="e_0_energy">   -657.89959869 </i>
   </energy>
  </scstep>
  <scstep>
   <time name="total">  167.63  169.69</time>
   <energy>
    <i name="e_fr_energy">   -657.90043108 </i>
    <i name="e_wo_entrp">   -657.90043108 </i>
    <i name="e_0_energy">   -657.90043108 </i>
   </energy>
  </scstep>
  <scstep>
   <time name="total">  167.57  169.61</time>
   <energy>
    <i name="e_fr_energy">   -657.90089025 </i>
    <i name="e_wo_entrp">   -657.90089025 </i>
    <i name="e_0_energy">   -657.90089025 </i>
   </energy>
  </scstep>
  <scstep>
   <time name="total">  166.77  168.22</time>
   <energy>
    <i name="e_fr_energy">   -657.90113773 </i>
    <i name="e_wo_entrp">   -657.90113773 </i>
    <i name="e_0_energy">   -657.90113773 </i>
   </energy>
  </scstep>
  <scstep>
   <time name="total">  167.29  169.15</time>
   <energy>
    <i name="e_fr_energy">   -657.90131259 </i>
    <i name="e_wo_entrp">   -657.90131259 </i>
    <i name="e_0_energy">   -657.90131259 </i>
   </energy>
  </scstep>
  <scstep>
   <time name="total">  167.18  169.15</time>
   <energy>
    <i name="e_fr_energy">   -657.90144691 </i>
    <i name="e_wo_entrp">   -657.90144691 </i>
    <i name="e_0_energy">   -657.90144691 </i>
   </energy>
  </scstep>
  <scstep>
   <time name="total">  167.06  168.92</time>
   <energy>
    <i name="e_fr_energy">   -657.90153434 </i>
    <i name="e_wo_entrp">   -657.90153434 </i>
    <i name="e_0_energy">   -657.90153434 </i>
   </energy>
  </scstep>
  <scstep>
   <time name="total">  166.34  167.99</time>
   <energy>
    <i name="e_fr_energy">   -657.90157772 </i>
    <i name="e_wo_entrp">   -657.90157772 </i>
    <i name="e_0_energy">   -657.90157772 </i>
   </energy>
  </scstep>
  <scstep>
   <time name="total">  166.31  168.07</time>
   <energy>
    <i name="e_fr_energy">   -657.90160326 </i>
    <i name="e_wo_entrp">   -657.90160326 </i>
    <i name="e_0_energy">   -657.90160326 </i>
   </energy>
  </scstep>
  <scstep>
   <time name="total">  167.21  169.16</time>
   <energy>
    <i name="e_fr_energy">   -657.90161868 </i>
    <i name="e_wo_entrp">   -657.90161868 </i>
    <i name="e_0_energy">   -657.90161868 </i>
   </energy>
  </scstep>
  <scstep>
   <time name="total">  167.04  168.81</time>
   <energy>
    <i name="e_fr_energy">   -657.90162774 </i>
    <i name="e_wo_entrp">   -657.90162774 </i>
    <i name="e_0_energy">   -657.90162774 </i>
   </energy>
  </scstep>
  <scstep>
   <time name="total">  167.39  168.88</time>
   <energy>
    <i name="e_fr_energy">   -657.90163268 </i>
    <i name="e_wo_entrp">   -657.90163268 </i>
    <i name="e_0_energy">   -657.90163268 </i>
   </energy>
  </scstep>
  <scstep>
   <time name="total">  167.02  168.50</time>
   <energy>
    <i name="e_fr_energy">   -657.90163627 </i>
    <i name="e_wo_entrp">   -657.90163627 </i>
    <i name="e_0_energy">   -657.90163627 </i>
   </energy>
  </scstep>
  <scstep>
   <time name="total">  166.56  168.39</time>
   <energy>
    <i name="e_fr_energy">   -657.90163924 </i>
    <i name="e_wo_entrp">   -657.90163924 </i>
    <i name="e_0_energy">   -657.90163924 </i>
   </energy>
  </scstep>
  <scstep>
   <time name="total">  166.97  169.12</time>
   <energy>
    <i name="e_fr_energy">   -657.90164137 </i>
    <i name="e_wo_entrp">   -657.90164137 </i>
    <i name="e_0_energy">   -657.90164137 </i>
   </energy>
  </scstep>
  <scstep>
   <time name="total">  165.97  167.95</time>
   <energy>
    <i name="e_fr_energy">   -657.90164298 </i>
    <i name="e_wo_entrp">   -657.90164298 </i>
    <i name="e_0_energy">   -657.90164298 </i>
   </energy>
  </scstep>
  <scstep>
   <time name="total">  167.40  169.26</time>
   <energy>
    <i name="e_fr_energy">   -657.90164416 </i>
    <i name="e_wo_entrp">   -657.90164416 </i>
    <i name="e_0_energy">   -657.90164416 </i>
   </energy>
  </scstep>
  <scstep>
   <time name="total">  166.67  168.55</time>
   <energy>
    <i name="e_fr_energy">   -657.90164539 </i>
    <i name="e_wo_entrp">   -657.90164539 </i>
    <i name="e_0_energy">   -657.90164539 </i>
   </energy>
  </scstep>
  <scstep>
   <time name="total">  190.15  192.09</time>
   <energy>
    <i name="alphaZ">   2639.27042227 </i>
    <i name="ewald"> -69235.14656543 </i>
    <i name="hartreedc"> -34827.56873718 </i>
    <i name="XCdc">   3975.73138336 </i>
    <i name="pawpsdc"> 109952.29294691 </i>
    <i name="pawaedc">-113408.80973382 </i>
    <i name="eentropy">     -0.00000000 </i>
    <i name="bandstr"> -13269.00077329 </i>
    <i name="atom"> 113515.32941094 </i>
    <i name="e_fr_energy">   -657.90164625 </i>
    <i name="e_wo_entrp">   -657.90164625 </i>
    <i name="e_0_energy">   -657.90164625 </i>
   </energy>
  </scstep>
  <structure>
   <crystal>
    <varray name="basis" >
     <v>      11.57658324       0.00206628      -0.00954291 </v>
     <v>      -0.00198552      11.57659983      -0.00954294 </v>
     <v>      -3.84767942      -3.84903072      12.76635918 </v>
    </varray>
    <i name="volume">   1710.06494320 </i>
    <varray name="rec_basis" >
     <v>       0.08640274       0.00003629       0.02605204 </v>
     <v>       0.00000605       0.08640263       0.02605204 </v>
     <v>       0.00006459       0.00006461       0.07836982 </v>
    </varray>
   </crystal>
   <varray name="positions" >
    <v>       0.14940024       0.01727802       0.00000711 </v>
    <v>       0.48273357       0.01727802       0.00000711 </v>
    <v>       0.81606690       0.01727802       0.00000711 </v>
    <v>       0.14940024       0.35061135       0.00000711 </v>
    <v>       0.48273357       0.35061135       0.00000711 </v>
    <v>       0.81606690       0.35061135       0.00000711 </v>
    <v>       0.14940024       0.68394468       0.00000711 </v>
    <v>       0.48273357       0.68394468       0.00000711 </v>
    <v>       0.81606690       0.68394468       0.00000711 </v>
    <v>       0.14940024       0.01727802       0.50000711 </v>
    <v>       0.48273357       0.01727802       0.50000711 </v>
    <v>       0.81606690       0.01727802       0.50000711 </v>
    <v>       0.14940024       0.35061135       0.50000711 </v>
    <v>       0.48273357       0.35061135       0.50000711 </v>
    <v>       0.81606690       0.35061135       0.50000711 </v>
    <v>       0.14940024       0.68394468       0.50000711 </v>
    <v>       0.48273357       0.68394468       0.50000711 </v>
    <v>       0.81606690       0.68394468       0.50000711 </v>
    <v>       0.31605532       0.18393310       0.49999289 </v>
    <v>       0.64938865       0.18393310       0.49999289 </v>
    <v>       0.98272198       0.18393310       0.49999289 </v>
    <v>       0.31605532       0.51726643       0.49999289 </v>
    <v>       0.64938865       0.51726643       0.49999289 </v>
    <v>       0.98272198       0.51726643       0.49999289 </v>
    <v>       0.31605532       0.85059976       0.49999289 </v>
    <v>       0.64938865       0.85059976       0.49999289 </v>
    <v>       0.98272198       0.85059976       0.49999289 </v>
    <v>       0.31605532       0.18393310       0.99999289 </v>
    <v>       0.64938865       0.18393310       0.99999289 </v>
    <v>       0.98272198       0.18393310       0.99999289 </v>
    <v>       0.31605532       0.51726643       0.99999289 </v>
    <v>       0.64938865       0.51726643       0.99999289 </v>
    <v>       0.98272198       0.51726643       0.99999289 </v>
    <v>       0.31605532       0.85059976       0.99999289 </v>
    <v>       0.64938865       0.85059976       0.99999289 </v>
    <v>       0.98272198       0.85059976       0.99999289 </v>
    <v>       0.31606288       0.01727079       0.00000000 </v>
    <v>       0.64939621       0.01727079       0.00000000 </v>
    <v>       0.98272954       0.01727079       0.00000000 </v>
    <v>       0.31606288       0.35060413       0.00000000 </v>
    <v>       0.64939621       0.35060413       0.00000000 </v>
    <v>       0.98272954       0.35060413       0.00000000 </v>
    <v>       0.31606288       0.68393746       0.00000000 </v>
    <v>       0.64939621       0.68393746       0.00000000 </v>
    <v>       0.98272954       0.68393746       0.00000000 </v>
    <v>       0.31606288       0.01727079       0.50000000 </v>
    <v>       0.64939621       0.01727079       0.50000000 </v>
    <v>       0.98272954       0.01727079       0.50000000 </v>
    <v>       0.31606288       0.35060413       0.50000000 </v>
    <v>       0.64939621       0.35060413       0.50000000 </v>
    <v>       0.98272954       0.35060413       0.50000000 </v>
    <v>       0.31606288       0.68393746       0.50000000 </v>
    <v>       0.64939621       0.68393746       0.50000000 </v>
    <v>       0.98272954       0.68393746       0.50000000 </v>
    <v>       0.19934057       0.23388678       0.14983771 </v>
    <v>       0.53267391       0.23388678       0.14983771 </v>
    <v>       0.86600724       0.23388678       0.14983771 </v>
    <v>       0.19934057       0.56722011       0.14983771 </v>
    <v>       0.53267391       0.56722011       0.14983771 </v>
    <v>       0.86600724       0.56722011       0.14983771 </v>
    <v>       0.19934057       0.90055344       0.14983771 </v>
    <v>       0.53267391       0.90055344       0.14983771 </v>
    <v>       0.86600724       0.90055344       0.14983771 </v>
    <v>       0.19934057       0.23388678       0.64983771 </v>
    <v>       0.53267391       0.23388678       0.64983771 </v>
    <v>       0.86600724       0.23388678       0.64983771 </v>
    <v>       0.19934057       0.56722011       0.64983771 </v>
    <v>       0.53267391       0.56722011       0.64983771 </v>
    <v>       0.86600724       0.56722011       0.64983771 </v>
    <v>       0.19934057       0.90055344       0.64983771 </v>
    <v>       0.53267391       0.90055344       0.64983771 </v>
    <v>       0.86600724       0.90055344       0.64983771 </v>
    <v>       0.09944656       0.13399276       0.35016229 </v>
    <v>       0.43277989       0.13399276       0.35016229 </v>
    <v>       0.76611322       0.13399276       0.35016229 </v>
    <v>       0.09944656       0.46732609       0.35016229 </v>
    <v>       0.43277989       0.46732609       0.35016229 </v>
    <v>       0.76611322       0.46732609       0.35016229 </v>
    <v>       0.09944656       0.80065943       0.35016229 </v>
    <v>       0.43277989       0.80065943       0.35016229 </v>
    <v>       0.76611322       0.80065943       0.35016229 </v>
    <v>       0.09944656       0.13399276       0.85016229 </v>
    <v>       0.43277989       0.13399276       0.85016229 </v>
    <v>       0.76611322       0.13399276       0.85016229 </v>
    <v>       0.09944656       0.46732609       0.85016229 </v>
    <v>       0.43277989       0.46732609       0.85016229 </v>
    <v>       0.76611322       0.46732609       0.85016229 </v>
    <v>       0.09944656       0.80065943       0.85016229 </v>
    <v>       0.43277989       0.80065943       0.85016229 </v>
    <v>       0.76611322       0.80065943       0.85016229 </v>
    <v>       0.03603208       0.06971249       0.15990037 </v>
    <v>       0.36936541       0.07057630       0.15990037 </v>
    <v>       0.70269875       0.07057630       0.15990037 </v>
    <v>       0.03603208       0.40390964       0.15990037 </v>
    <v>       0.36936541       0.40390964       0.15990037 </v>
    <v>       0.70269875       0.40390964       0.15990037 </v>
    <v>       0.03603208       0.73724297       0.15990037 </v>
    <v>       0.36936541       0.73724297       0.15990037 </v>
    <v>       0.70269875       0.73724297       0.15990037 </v>
    <v>       0.03603208       0.07057630       0.65990037 </v>
    <v>       0.36936541       0.07057630       0.65990037 </v>
    <v>       0.70269875       0.07057630       0.65990037 </v>
    <v>       0.03603208       0.40390964       0.65990037 </v>
    <v>       0.36936541       0.40390964       0.65990037 </v>
    <v>       0.70269875       0.40390964       0.65990037 </v>
    <v>       0.03603208       0.73724297       0.65990037 </v>
    <v>       0.36936541       0.73724297       0.65990037 </v>
    <v>       0.70269875       0.73724297       0.65990037 </v>
    <v>       0.26275703       0.29730125       0.34009963 </v>
    <v>       0.59609036       0.29730125       0.34009963 </v>
    <v>       0.92942370       0.29730125       0.34009963 </v>
    <v>       0.26275703       0.63063459       0.34009963 </v>
    <v>       0.59609036       0.63063459       0.34009963 </v>
    <v>       0.92942370       0.63063459       0.34009963 </v>
    <v>       0.26275703       0.96396792       0.34009963 </v>
    <v>       0.59609036       0.96396792       0.34009963 </v>
    <v>       0.92942370       0.96396792       0.34009963 </v>
    <v>       0.26275703       0.29730125       0.84009963 </v>
    <v>       0.59609036       0.29730125       0.84009963 </v>
    <v>       0.92942370       0.29730125       0.84009963 </v>
    <v>       0.26275703       0.63063459       0.84009963 </v>
    <v>       0.59609036       0.63063459       0.84009963 </v>
    <v>       0.92942370       0.63063459       0.84009963 </v>
    <v>       0.26275703       0.96396792       0.84009963 </v>
    <v>       0.59609036       0.96396792       0.84009963 </v>
    <v>       0.92942370       0.96396792       0.84009963 </v>
   </varray>
  </structure>
  <varray name="forces" >
   <v>       0.00002707       0.00295371      -0.00001020 </v>
   <v>       0.00004220       0.00033881      -0.00000955 </v>
   <v>       0.00006376       0.00294961      -0.00000747 </v>
   <v>       0.00011008      -0.00102864       0.00077010 </v>
   <v>       0.00005034      -0.00022063       0.00009020 </v>
   <v>      -0.00002834      -0.00104016       0.00079646 </v>
   <v>      -0.00000982      -0.00105252      -0.00077445 </v>
   <v>       0.00004542      -0.00024234      -0.00008889 </v>
   <v>       0.00009863      -0.00105188      -0.00075835 </v>
   <v>       0.00003639       0.00055138      -0.00014035 </v>
   <v>       0.00009693       0.00013716       0.00008788 </v>
   <v>       0.00000155       0.00014803       0.00005382 </v>
   <v>       0.00005811       0.00048943       0.00013617 </v>
   <v>      -0.00000974       0.00009406      -0.00006459 </v>
   <v>       0.00008754       0.00006917      -0.00005893 </v>
   <v>       0.00005236      -0.00049588      -0.00003175 </v>
   <v>       0.00002684      -0.00041683      -0.00001675 </v>
   <v>       0.00004323      -0.00040932      -0.00002894 </v>
   <v>       0.00004790      -0.00005023       0.00003893 </v>
   <v>       0.00006207      -0.00002099       0.00002662 </v>
   <v>       0.00005485      -0.00005488       0.00002129 </v>
   <v>       0.00000383      -0.00009470      -0.00028140 </v>
   <v>       0.00003909      -0.00002421      -0.00032265 </v>
   <v>       0.00011589      -0.00009163      -0.00032888 </v>
   <v>       0.00009826      -0.00008117       0.00030962 </v>
   <v>       0.00005533       0.00001051       0.00029308 </v>
   <v>       0.00001085      -0.00005897       0.00026599 </v>
   <v>      -0.00079970       0.00038840       0.00119407 </v>
   <v>       0.00091482       0.00040207       0.00120206 </v>
   <v>       0.00004637      -0.00396025       0.00712101 </v>
   <v>       0.00005555      -0.00057680      -0.00001656 </v>
   <v>       0.00004564      -0.00058354       0.00001523 </v>
   <v>       0.00006076      -0.00064392       0.00000882 </v>
   <v>       0.00090678       0.00038896      -0.00120520 </v>
   <v>      -0.00080364       0.00038867      -0.00119002 </v>
   <v>       0.00004618      -0.00399348      -0.00715254 </v>
   <v>       0.00001529      -0.00166935      -0.00009788 </v>
   <v>       0.00000145      -0.00166724      -0.00007228 </v>
   <v>       0.00000556      -0.00726741       0.00012576 </v>
   <v>       0.00087720       0.00113788      -0.00201574 </v>
   <v>      -0.00085677       0.00115064      -0.00181536 </v>
   <v>      -0.00000744       0.00145531      -0.00173891 </v>
   <v>      -0.00080833       0.00117415       0.00195309 </v>
   <v>       0.00082753       0.00115814       0.00205305 </v>
   <v>       0.00000201       0.00148227       0.00201990 </v>
   <v>       0.00023550      -0.00051745      -0.00045377 </v>
   <v>       0.00001636      -0.00038632      -0.00024582 </v>
   <v>      -0.00021344      -0.00051718      -0.00074291 </v>
   <v>      -0.00023157      -0.00045471       0.00071435 </v>
   <v>      -0.00001147      -0.00029233       0.00019290 </v>
   <v>       0.00025588      -0.00045834       0.00056977 </v>
   <v>       0.00000272       0.00049336       0.00006031 </v>
   <v>       0.00000184       0.00068095      -0.00002256 </v>
   <v>       0.00000139       0.00050872      -0.00012624 </v>
   <v>       0.00148515      -0.00075060       0.00141527 </v>
   <v>       0.00001212      -0.00074523       0.00023582 </v>
   <v>      -0.00164425      -0.00069925       0.00148322 </v>
   <v>      -0.00010215       0.00207580       0.00010629 </v>
   <v>       0.00003073       0.00153741       0.00012582 </v>
   <v>      -0.00006493       0.00204962       0.00018422 </v>
   <v>      -0.00144748      -0.00096544      -0.00120572 </v>
   <v>      -0.00000911      -0.00083037       0.00001327 </v>
   <v>       0.00130612      -0.00098081      -0.00113134 </v>
   <v>       0.00003275      -0.00009276       0.00016616 </v>
   <v>      -0.00014533      -0.00011302       0.00015763 </v>
   <v>      -0.00003289      -0.00005311       0.00004986 </v>
   <v>      -0.00002800       0.00006137       0.00022898 </v>
   <v>      -0.00006215       0.00006863       0.00019485 </v>
   <v>      -0.00004099       0.00008244       0.00021278 </v>
   <v>       0.00001965      -0.00004505      -0.00000267 </v>
   <v>      -0.00011347      -0.00004550       0.00003385 </v>
   <v>      -0.00005310      -0.00011843      -0.00004365 </v>
   <v>      -0.00002856      -0.00355700      -0.00019475 </v>
   <v>       0.00004399      -0.00138735      -0.00009974 </v>
   <v>       0.00007705      -0.00138507      -0.00013663 </v>
   <v>      -0.00003617       0.00118802       0.00087810 </v>
   <v>       0.00067960       0.00100687       0.00091545 </v>
   <v>      -0.00054445       0.00101413       0.00080737 </v>
   <v>      -0.00004267       0.00118287      -0.00118593 </v>
   <v>      -0.00058200       0.00100419      -0.00111111 </v>
   <v>       0.00070246       0.00100341      -0.00117897 </v>
   <v>       0.00003782      -0.00022922      -0.00085432 </v>
   <v>       0.00001931      -0.00012123      -0.00047141 </v>
   <v>       0.00002539      -0.00023634      -0.00084260 </v>
   <v>       0.00007841       0.00037529      -0.00011906 </v>
   <v>       0.00001276       0.00040603      -0.00013163 </v>
   <v>      -0.00000551       0.00037461      -0.00007524 </v>
   <v>       0.00013477      -0.00015074       0.00060952 </v>
   <v>       0.00003039      -0.00000479       0.00010040 </v>
   <v>      -0.00006629      -0.00013245       0.00061125 </v>
   <v>      -0.00012794       0.02772989       0.00001734 </v>
   <v>      -0.00008128       0.00350719      -0.00000753 </v>
   <v>      -0.00007546       0.00351676       0.00006338 </v>
   <v>      -0.00014657      -0.00469670      -0.00010377 </v>
   <v>      -0.00225392      -0.00341556      -0.00012342 </v>
   <v>       0.00216439      -0.00338259      -0.00012010 </v>
   <v>      -0.00013286      -0.00474353       0.00010756 </v>
   <v>       0.00211875      -0.00341460       0.00010952 </v>
   <v>      -0.00224447      -0.00343659       0.00014257 </v>
   <v>      -0.00005338       0.00013667       0.00052520 </v>
   <v>      -0.00009194       0.00013406       0.00040948 </v>
   <v>      -0.00013973       0.00012920       0.00043575 </v>
   <v>      -0.00005867      -0.00015066      -0.00022181 </v>
   <v>      -0.00011335      -0.00012166      -0.00022714 </v>
   <v>      -0.00008719      -0.00015124      -0.00018089 </v>
   <v>      -0.00005225      -0.00000584      -0.00037058 </v>
   <v>      -0.00009212       0.00003809      -0.00022751 </v>
   <v>      -0.00011765       0.00003025      -0.00036914 </v>
   <v>      -0.00106661      -0.00003939      -0.00496647 </v>
   <v>       0.00004587       0.00061533      -0.00056746 </v>
   <v>       0.00103471      -0.00000358      -0.00502357 </v>
   <v>      -0.00003288      -0.00102403       0.00002528 </v>
   <v>       0.00004391      -0.00112349      -0.00001327 </v>
   <v>       0.00001489      -0.00101667      -0.00002910 </v>
   <v>       0.00100775      -0.00001381       0.00502142 </v>
   <v>       0.00003741       0.00062036       0.00062928 </v>
   <v>      -0.00104683      -0.00000786       0.00503637 </v>
   <v>      -0.00000987      -0.00012096       0.00067458 </v>
   <v>      -0.00000317      -0.00015128       0.00066820 </v>
   <v>       0.00000202      -0.00015242       0.00081651 </v>
   <v>       0.00006541      -0.00016633      -0.00075929 </v>
   <v>      -0.00006457      -0.00016054      -0.00075406 </v>
   <v>       0.00001270      -0.00020349      -0.00084584 </v>
   <v>       0.00003277       0.00055974       0.00005472 </v>
   <v>      -0.00002581       0.00056855       0.00002307 </v>
   <v>      -0.00000815       0.00020175       0.00010385 </v>
  </varray>
  <varray name="stress" >
   <v>      -0.15672003      -0.00070194      -0.00286940 </v>
   <v>      -0.00069639      -0.12523696       0.00718011 </v>
   <v>      -0.00282550       0.00719495      -0.08842006 </v>
  </varray>
  <energy>
   <i name="e_fr_energy">   -657.90164625 </i>
   <i name="e_wo_entrp">   -657.90164625 </i>
   <i name="e_0_energy">     -0.00000000 </i>
  </energy>
  <time name="totalsc"> 6400.20 6470.64</time>
  <eigenvalues>
   <array>
    <dimension dim="1">band</dimension>
    <dimension dim="2">kpoint</dimension>
    <dimension dim="3">spin</dimension>
    <field>eigene</field>
    <field>occ</field>
    <set>
     <set comment="spin 1">
      <set comment="kpoint 1">
       <r>  -51.1417    1.0000 </r>
       <r>  -51.1414    1.0000 </r>
       <r>  -51.1412    1.0000 </r>
       <r>  -51.1409    1.0000 </r>
       <r>  -51.1408    1.0000 </r>
       <r>  -51.1406    1.0000 </r>
       <r>  -51.1401    1.0000 </r>
       <r>  -51.1401    1.0000 </r>
       <r>  -51.1401    1.0000 </r>
       <r>  -51.1399    1.0000 </r>
       <r>  -51.1398    1.0000 </r>
       <r>  -51.1397    1.0000 </r>
       <r>  -51.1397    1.0000 </r>
       <r>  -51.1396    1.0000 </r>
       <r>  -51.1395    1.0000 </r>
       <r>  -51.1395    1.0000 </r>
       <r>  -51.1394    1.0000 </r>
       <r>  -51.1394    1.0000 </r>
       <r>  -51.1393    1.0000 </r>
       <r>  -51.1393    1.0000 </r>
       <r>  -51.1392    1.0000 </r>
       <r>  -51.1391    1.0000 </r>
       <r>  -51.1391    1.0000 </r>
       <r>  -51.1390    1.0000 </r>
       <r>  -51.1389    1.0000 </r>
       <r>  -51.1389    1.0000 </r>
       <r>  -51.1388    1.0000 </r>
       <r>  -51.1387    1.0000 </r>
       <r>  -51.1386    1.0000 </r>
       <r>  -51.1386    1.0000 </r>
       <r>  -51.1382    1.0000 </r>
       <r>  -51.1379    1.0000 </r>
       <r>  -51.1377    1.0000 </r>
       <r>  -51.1374    1.0000 </r>
       <r>  -51.1372    1.0000 </r>
       <r>  -51.1370    1.0000 </r>
       <r>  -49.6562    1.0000 </r>
       <r>  -49.6561    1.0000 </r>
       <r>  -49.6558    1.0000 </r>
       <r>  -49.6557    1.0000 </r>
       <r>  -49.6555    1.0000 </r>
       <r>  -49.6551    1.0000 </r>
       <r>  -49.6549    1.0000 </r>
       <r>  -49.6549    1.0000 </r>
       <r>  -49.6548    1.0000 </r>
       <r>  -49.6548    1.0000 </r>
       <r>  -49.6548    1.0000 </r>
       <r>  -49.6547    1.0000 </r>
       <r>  -49.6546    1.0000 </r>
       <r>  -49.6544    1.0000 </r>
       <r>  -49.6543    1.0000 </r>
       <r>  -49.6543    1.0000 </r>
       <r>  -49.6543    1.0000 </r>
       <r>  -49.6543    1.0000 </r>
       <r>  -49.6542    1.0000 </r>
       <r>  -49.6542    1.0000 </r>
       <r>  -49.6542    1.0000 </r>
       <r>  -49.6542    1.0000 </r>
       <r>  -49.6540    1.0000 </r>
       <r>  -49.6540    1.0000 </r>
       <r>  -49.6539    1.0000 </r>
       <r>  -49.6539    1.0000 </r>
       <r>  -49.6538    1.0000 </r>
       <r>  -49.6538    1.0000 </r>
       <r>  -49.6538    1.0000 </r>
       <r>  -49.6537    1.0000 </r>
       <r>  -49.6535    1.0000 </r>
       <r>  -49.6534    1.0000 </r>
       <r>  -49.6533    1.0000 </r>
       <r>  -49.6531    1.0000 </r>
       <r>  -49.6531    1.0000 </r>
       <r>  -49.6530    1.0000 </r>
       <r>  -49.6530    1.0000 </r>
       <r>  -49.6530    1.0000 </r>
       <r>  -49.6529    1.0000 </r>
       <r>  -49.6527    1.0000 </r>
       <r>  -49.6527    1.0000 </r>
       <r>  -49.6526    1.0000 </r>
       <r>  -49.6526    1.0000 </r>
       <r>  -49.6526    1.0000 </r>
       <r>  -49.6525    1.0000 </r>
       <r>  -49.6525    1.0000 </r>
       <r>  -49.6524    1.0000 </r>
       <r>  -49.6524    1.0000 </r>
       <r>  -49.6523    1.0000 </r>
       <r>  -49.6523    1.0000 </r>
       <r>  -49.6523    1.0000 </r>
       <r>  -49.6522    1.0000 </r>
       <r>  -49.6522    1.0000 </r>
       <r>  -49.6521    1.0000 </r>
       <r>  -49.6520    1.0000 </r>
       <r>  -49.6520    1.0000 </r>
       <r>  -49.6520    1.0000 </r>
       <r>  -49.6520    1.0000 </r>
       <r>  -49.6518    1.0000 </r>
       <r>  -49.6518    1.0000 </r>
       <r>  -49.6518    1.0000 </r>
       <r>  -49.6518    1.0000 </r>
       <r>  -49.6517    1.0000 </r>
       <r>  -49.6515    1.0000 </r>
       <r>  -49.6514    1.0000 </r>
       <r>  -49.6513    1.0000 </r>
       <r>  -49.6509    1.0000 </r>
       <r>  -49.6509    1.0000 </r>
       <r>  -49.6505    1.0000 </r>
       <r>  -49.6503    1.0000 </r>
       <r>  -49.6501    1.0000 </r>
       <r>  -49.6494    1.0000 </r>
       <r>  -39.6380    1.0000 </r>
       <r>  -39.6378    1.0000 </r>
       <r>  -39.6251    1.0000 </r>
       <r>  -39.6245    1.0000 </r>
       <r>  -39.6244    1.0000 </r>
       <r>  -39.6244    1.0000 </r>
       <r>  -39.6243    1.0000 </r>
       <r>  -39.6243    1.0000 </r>
       <r>  -39.6242    1.0000 </r>
       <r>  -39.6238    1.0000 </r>
       <r>  -39.6177    1.0000 </r>
       <r>  -39.6173    1.0000 </r>
       <r>  -39.6173    1.0000 </r>
       <r>  -39.6173    1.0000 </r>
       <r>  -39.6172    1.0000 </r>
       <r>  -39.6171    1.0000 </r>
       <r>  -39.6171    1.0000 </r>
       <r>  -39.6166    1.0000 </r>
       <r>  -39.6050    1.0000 </r>
       <r>  -39.6045    1.0000 </r>
       <r>  -39.6044    1.0000 </r>
       <r>  -39.6044    1.0000 </r>
       <r>  -39.6043    1.0000 </r>
       <r>  -39.6043    1.0000 </r>
       <r>  -39.6042    1.0000 </r>
       <r>  -39.6039    1.0000 </r>
       <r>  -39.5990    1.0000 </r>
       <r>  -39.5986    1.0000 </r>
       <r>  -39.5985    1.0000 </r>
       <r>  -39.5985    1.0000 </r>
       <r>  -39.5985    1.0000 </r>
       <r>  -39.5984    1.0000 </r>
       <r>  -39.5983    1.0000 </r>
       <r>  -39.5977    1.0000 </r>
       <r>  -39.5862    1.0000 </r>
       <r>  -39.5861    1.0000 </r>
       <r>  -12.7552    1.0000 </r>
       <r>  -12.7551    1.0000 </r>
       <r>  -12.7543    1.0000 </r>
       <r>  -12.7543    1.0000 </r>
       <r>  -12.7532    1.0000 </r>
       <r>  -12.7531    1.0000 </r>
       <r>  -12.7523    1.0000 </r>
       <r>  -12.7523    1.0000 </r>
       <r>  -12.7080    1.0000 </r>
       <r>  -12.7076    1.0000 </r>
       <r>  -12.7076    1.0000 </r>
       <r>  -12.7073    1.0000 </r>
       <r>  -12.7054    1.0000 </r>
       <r>  -12.7050    1.0000 </r>
       <r>  -12.7050    1.0000 </r>
       <r>  -12.7046    1.0000 </r>
       <r>  -12.6738    1.0000 </r>
       <r>  -12.6624    1.0000 </r>
       <r>   -7.7607    1.0000 </r>
       <r>   -7.7173    1.0000 </r>
       <r>   -7.3292    1.0000 </r>
       <r>   -7.3281    1.0000 </r>
       <r>   -7.3281    1.0000 </r>
       <r>   -7.3271    1.0000 </r>
       <r>   -7.2996    1.0000 </r>
       <r>   -7.2986    1.0000 </r>
       <r>   -7.2986    1.0000 </r>
       <r>   -7.2975    1.0000 </r>
       <r>   -7.1014    1.0000 </r>
       <r>   -7.1008    1.0000 </r>
       <r>   -7.0876    1.0000 </r>
       <r>   -7.0870    1.0000 </r>
       <r>   -7.0814    1.0000 </r>
       <r>   -7.0433    1.0000 </r>
       <r>   -7.0427    1.0000 </r>
       <r>   -7.0217    1.0000 </r>
       <r>   -6.9927    1.0000 </r>
       <r>   -6.9921    1.0000 </r>
       <r>   -6.9494    1.0000 </r>
       <r>   -6.9485    1.0000 </r>
       <r>   -6.9485    1.0000 </r>
       <r>   -6.9475    1.0000 </r>
       <r>   -6.9191    1.0000 </r>
       <r>   -6.9184    1.0000 </r>
       <r>   -6.8816    1.0000 </r>
       <r>   -6.8806    1.0000 </r>
       <r>   -6.8806    1.0000 </r>
       <r>   -6.8796    1.0000 </r>
       <r>   -6.8574    1.0000 </r>
       <r>   -6.8567    1.0000 </r>
       <r>   -6.7921    1.0000 </r>
       <r>   -6.7914    1.0000 </r>
       <r>   -6.7684    1.0000 </r>
       <r>   -6.7677    1.0000 </r>
       <r>   -1.5489    1.0000 </r>
       <r>   -1.4789    1.0000 </r>
       <r>   -1.4783    1.0000 </r>
       <r>   -1.4783    1.0000 </r>
       <r>   -1.4778    1.0000 </r>
       <r>   -1.3843    1.0000 </r>
       <r>   -1.3842    1.0000 </r>
       <r>   -1.3769    1.0000 </r>
       <r>   -1.3764    1.0000 </r>
       <r>   -1.3763    1.0000 </r>
       <r>   -1.3759    1.0000 </r>
[...]
       <r>   -37.6094     0.0000   144.0000 </r>
       <r>   -37.3693     0.0000   144.0000 </r>
       <r>   -37.1292     0.0000   144.0000 </r>
       <r>   -36.8891     0.0000   144.0000 </r>
       <r>   -36.6490     0.0000   144.0000 </r>
       <r>   -36.4090     0.0000   144.0000 </r>
       <r>   -36.1689     0.0000   144.0000 </r>
       <r>   -35.9288     0.0000   144.0000 </r>
       <r>   -35.6887     0.0000   144.0000 </r>
       <r>   -35.4486     0.0000   144.0000 </r>
       <r>   -35.2085     0.0000   144.0000 </r>
       <r>   -34.9684     0.0000   144.0000 </r>
       <r>   -34.7283     0.0000   144.0000 </r>
       <r>   -34.4882     0.0000   144.0000 </r>
       <r>   -34.2481     0.0000   144.0000 </r>
       <r>   -34.0081     0.0000   144.0000 </r>
       <r>   -33.7680     0.0000   144.0000 </r>
       <r>   -33.5279     0.0000   144.0000 </r>
       <r>   -33.2878     0.0000   144.0000 </r>
       <r>   -33.0477     0.0000   144.0000 </r>
       <r>   -32.8076     0.0000   144.0000 </r>
       <r>   -32.5675     0.0000   144.0000 </r>
       <r>   -32.3274     0.0000   144.0000 </r>
       <r>   -32.0873     0.0000   144.0000 </r>
       <r>   -31.8472     0.0000   144.0000 </r>
       <r>   -31.6072     0.0000   144.0000 </r>
       <r>   -31.3671     0.0000   144.0000 </r>
       <r>   -31.1270     0.0000   144.0000 </r>
       <r>   -30.8869     0.0000   144.0000 </r>
       <r>   -30.6468     0.0000   144.0000 </r>
       <r>   -30.4067     0.0000   144.0000 </r>
       <r>   -30.1666     0.0000   144.0000 </r>
       <r>   -29.9265     0.0000   144.0000 </r>
       <r>   -29.6864     0.0000   144.0000 </r>
       <r>   -29.4463     0.0000   144.0000 </r>
       <r>   -29.2063     0.0000   144.0000 </r>
       <r>   -28.9662     0.0000   144.0000 </r>
       <r>   -28.7261     0.0000   144.0000 </r>
       <r>   -28.4860     0.0000   144.0000 </r>
       <r>   -28.2459     0.0000   144.0000 </r>
       <r>   -28.0058     0.0000   144.0000 </r>
       <r>   -27.7657     0.0000   144.0000 </r>
       <r>   -27.5256     0.0000   144.0000 </r>
       <r>   -27.2855     0.0000   144.0000 </r>
       <r>   -27.0455     0.0000   144.0000 </r>
       <r>   -26.8054     0.0000   144.0000 </r>
       <r>   -26.5653     0.0000   144.0000 </r>
       <r>   -26.3252     0.0000   144.0000 </r>
       <r>   -26.0851     0.0000   144.0000 </r>
       <r>   -25.8450     0.0000   144.0000 </r>
       <r>   -25.6049     0.0000   144.0000 </r>
       <r>   -25.3648     0.0000   144.0000 </r>
       <r>   -25.1247     0.0000   144.0000 </r>
       <r>   -24.8846     0.0000   144.0000 </r>
       <r>   -24.6446     0.0000   144.0000 </r>
       <r>   -24.4045     0.0000   144.0000 </r>
       <r>   -24.1644     0.0000   144.0000 </r>
       <r>   -23.9243     0.0000   144.0000 </r>
       <r>   -23.6842     0.0000   144.0000 </r>
       <r>   -23.4441     0.0000   144.0000 </r>
       <r>   -23.2040     0.0000   144.0000 </r>
       <r>   -22.9639     0.0000   144.0000 </r>
       <r>   -22.7238     0.0000   144.0000 </r>
       <r>   -22.4837     0.0000   144.0000 </r>
       <r>   -22.2437     0.0000   144.0000 </r>
       <r>   -22.0036     0.0000   144.0000 </r>
       <r>   -21.7635     0.0000   144.0000 </r>
       <r>   -21.5234     0.0000   144.0000 </r>
       <r>   -21.2833     0.0000   144.0000 </r>
       <r>   -21.0432     0.0000   144.0000 </r>
       <r>   -20.8031     0.0000   144.0000 </r>
       <r>   -20.5630     0.0000   144.0000 </r>
       <r>   -20.3229     0.0000   144.0000 </r>
       <r>   -20.0828     0.0000   144.0000 </r>
       <r>   -19.8428     0.0000   144.0000 </r>
       <r>   -19.6027     0.0000   144.0000 </r>
       <r>   -19.3626     0.0000   144.0000 </r>
       <r>   -19.1225     0.0000   144.0000 </r>
       <r>   -18.8824     0.0000   144.0000 </r>
       <r>   -18.6423     0.0000   144.0000 </r>
       <r>   -18.4022     0.0000   144.0000 </r>
       <r>   -18.1621     0.0000   144.0000 </r>
       <r>   -17.9220     0.0000   144.0000 </r>
       <r>   -17.6819     0.0000   144.0000 </r>
       <r>   -17.4419     0.0000   144.0000 </r>
       <r>   -17.2018     0.0000   144.0000 </r>
       <r>   -16.9617     0.0000   144.0000 </r>
       <r>   -16.7216     0.0000   144.0000 </r>
       <r>   -16.4815     0.0000   144.0000 </r>
       <r>   -16.2414     0.0000   144.0000 </r>
       <r>   -16.0013     0.0000   144.0000 </r>
       <r>   -15.7612     0.0000   144.0000 </r>
       <r>   -15.5211     0.0000   144.0000 </r>
       <r>   -15.2810     0.0000   144.0000 </r>
       <r>   -15.0410     0.0000   144.0000 </r>
       <r>   -14.8009     0.0000   144.0000 </r>
       <r>   -14.5608     0.0000   144.0000 </r>
       <r>   -14.3207     0.0000   144.0000 </r>
       <r>   -14.0806     0.0000   144.0000 </r>
       <r>   -13.8405     0.0000   144.0000 </r>
       <r>   -13.6004     0.0000   144.0000 </r>
       <r>   -13.3603     0.0000   144.0000 </r>
       <r>   -13.1202     0.0000   144.0000 </r>
       <r>   -12.8802     0.0000   144.0000 </r>
       <r>   -12.6401     0.0003   144.0001 </r>
       <r>   -12.4000    61.8789   158.8565 </r>
       <r>   -12.1599    13.0928   162.0000 </r>
       <r>   -11.9198     0.0000   162.0000 </r>
       <r>   -11.6797     0.0000   162.0000 </r>
       <r>   -11.4396     0.0000   162.0000 </r>
       <r>   -11.1995     0.0000   162.0000 </r>
       <r>   -10.9594     0.0000   162.0000 </r>
       <r>   -10.7193     0.0000   162.0000 </r>
       <r>   -10.4793     0.0000   162.0000 </r>
       <r>   -10.2392     0.0000   162.0000 </r>
       <r>    -9.9991     0.0000   162.0000 </r>
       <r>    -9.7590     0.0000   162.0000 </r>
       <r>    -9.5189     0.0000   162.0000 </r>
       <r>    -9.2788     0.0000   162.0000 </r>
       <r>    -9.0387     0.0000   162.0000 </r>
       <r>    -8.7986     0.0000   162.0000 </r>
       <r>    -8.5585     0.0000   162.0000 </r>
       <r>    -8.3184     0.0000   162.0000 </r>
       <r>    -8.0784     0.0000   162.0000 </r>
       <r>    -7.8383     0.0000   162.0000 </r>
       <r>    -7.5982     0.0593   162.0142 </r>
       <r>    -7.3581     9.3547   164.2602 </r>
       <r>    -7.1180    16.8085   168.2958 </r>
       <r>    -6.8779    23.9884   174.0552 </r>
       <r>    -6.6378    68.6364   190.5340 </r>
       <r>    -6.3977    31.0750   197.9948 </r>
       <r>    -6.1576     0.0215   198.0000 </r>
       <r>    -5.9175     0.0000   198.0000 </r>
       <r>    -5.6775     0.0000   198.0000 </r>
       <r>    -5.4374     0.0000   198.0000 </r>
       <r>    -5.1973     0.0000   198.0000 </r>
       <r>    -4.9572     0.0000   198.0000 </r>
       <r>    -4.7171     0.0000   198.0000 </r>
       <r>    -4.4770     0.0000   198.0000 </r>
       <r>    -4.2369     0.0000   198.0000 </r>
       <r>    -3.9968     0.0000   198.0000 </r>
       <r>    -3.7567     0.0000   198.0000 </r>
       <r>    -3.5166     0.0000   198.0000 </r>
       <r>    -3.2766     0.0000   198.0000 </r>
       <r>    -3.0365     0.0000   198.0000 </r>
       <r>    -2.7964     0.0000   198.0000 </r>
       <r>    -2.5563     0.0000   198.0000 </r>
       <r>    -2.3162     0.0000   198.0000 </r>
       <r>    -2.0761     0.0000   198.0000 </r>
       <r>    -1.8360     0.0000   198.0000 </r>
       <r>    -1.5959     0.0000   198.0000 </r>
       <r>    -1.3558     0.0000   198.0000 </r>
       <r>    -1.1157     0.0000   198.0000 </r>
       <r>    -0.8757     0.0000   198.0000 </r>
       <r>    -0.6356     0.0000   198.0000 </r>
       <r>    -0.3955     1.0384   198.2493 </r>
       <r>    -0.1554    12.3626   201.2174 </r>
       <r>     0.0847    19.6118   205.9260 </r>
       <r>     0.3248    27.2021   212.4570 </r>
       <r>     0.5649    30.1184   219.6881 </r>
       <r>     0.8050    38.6659   228.9714 </r>
       <r>     1.0451    34.9184   237.3550 </r>
       <r>     1.2852    47.1438   248.6737 </r>
       <r>     1.5252    30.7990   256.0682 </r>
       <r>     1.7653    60.4222   270.5750 </r>
       <r>     2.0054    48.6564   282.2569 </r>
       <r>     2.2455    18.7108   286.7492 </r>
       <r>     2.4856    29.4603   293.8223 </r>
       <r>     2.7257    59.6845   308.1519 </r>
       <r>     2.9658    50.7220   320.3298 </r>
       <r>     3.2059    54.9312   333.5182 </r>
       <r>     3.4460    75.2893   351.5944 </r>
       <r>     3.6860    28.5358   358.4456 </r>
       <r>     3.9261    18.7999   362.9592 </r>
       <r>     4.1662    90.2921   384.6375 </r>
       <r>     4.4063    45.2557   395.5029 </r>
       <r>     4.6464     2.0705   396.0000 </r>
       <r>     4.8865     0.0000   396.0000 </r>
       <r>     5.1266     0.0000   396.0000 </r>
       <r>     5.3667     0.0000   396.0000 </r>
       <r>     5.6068     0.0000   396.0000 </r>
       <r>     5.8469     0.0000   396.0000 </r>
       <r>     6.0869     0.0000   396.0000 </r>
       <r>     6.3270     0.1139   396.0274 </r>
       <r>     6.5671     4.1815   397.0313 </r>
       <r>     6.8072    13.2242   400.2063 </r>
       <r>     7.0473    29.1636   407.2082 </r>
       <r>     7.2874    55.0202   420.4180 </r>
       <r>     7.5275    79.5241   439.5109 </r>
       <r>     7.7676    68.7830   456.0250 </r>
       <r>     8.0077    80.6783   475.3950 </r>
       <r>     8.2478   100.3439   499.4866 </r>
       <r>     8.4878    40.7335   509.2663 </r>
       <r>     8.7279    43.4408   519.6960 </r>
       <r>     8.9680    41.1977   529.5871 </r>
       <r>     9.2081    39.8361   539.1514 </r>
       <r>     9.4482    15.2402   542.8104 </r>
       <r>     9.6883    16.3026   546.7245 </r>
       <r>     9.9284    13.0444   549.8563 </r>
       <r>    10.1685    24.1077   555.6443 </r>
       <r>    10.4086    23.4914   561.2844 </r>
       <r>    10.6487    26.7281   567.7015 </r>
       <r>    10.8887    25.3613   573.7905 </r>
       <r>    11.1288    25.4467   579.9000 </r>
       <r>    11.3689    19.6300   584.6130 </r>
       <r>    11.6090    24.6593   590.5334 </r>
       <r>    11.8491    26.3658   596.8636 </r>
       <r>    12.0892    26.9337   603.3301 </r>
       <r>    12.3293    36.3509   612.0575 </r>
       <r>    12.5694    37.2992   621.0127 </r>
       <r>    12.8095    46.9235   632.2785 </r>
       <r>    13.0496    36.0289   640.9287 </r>
       <r>    13.2896    29.0242   647.8971 </r>
       <r>    13.5297    48.8508   659.6257 </r>
       <r>    13.7698    39.2220   669.0425 </r>
       <r>    14.0099    21.3256   674.1626 </r>
       <r>    14.2500    18.0782   678.5029 </r>
       <r>    14.4901     6.2354   680.0000 </r>
       <r>    14.7302     0.0000   680.0000 </r>
       <r>    14.9703     0.0000   680.0000 </r>
       <r>    15.2104     0.0000   680.0000 </r>
       <r>    15.4505     0.0000   680.0000 </r>
       <r>    15.6905     0.0000   680.0000 </r>
       <r>    15.9306     0.0000   680.0000 </r>
       <r>    16.1707     0.0000   680.0000 </r>
       <r>    16.4108     0.0000   680.0000 </r>
       <r>    16.6509     0.0000   680.0000 </r>
       <r>    16.8910     0.0000   680.0000 </r>
       <r>    17.1311     0.0000   680.0000 </r>
       <r>    17.3712     0.0000   680.0000 </r>
       <r>    17.6113     0.0000   680.0000 </r>
      </set>
     </set>
    </array>
   </total>
  </dos>
 </calculation>
 <structure name="finalpos" >
  <crystal>
   <varray name="basis" >
    <v>      11.57658324       0.00206628      -0.00954291 </v>
    <v>      -0.00198552      11.57659983      -0.00954294 </v>
    <v>      -3.84767942      -3.84903072      12.76635918 </v>
   </varray>
   <i name="volume">   1710.06494320 </i>
   <varray name="rec_basis" >
    <v>       0.08640274       0.00003629       0.02605204 </v>
    <v>       0.00000605       0.08640263       0.02605204 </v>
    <v>       0.00006459       0.00006461       0.07836982 </v>
   </varray>
  </crystal>
  <varray name="positions" >
   <v>       0.14940024       0.01727802       0.00000711 </v>
   <v>       0.48273357       0.01727802       0.00000711 </v>
   <v>       0.81606690       0.01727802       0.00000711 </v>
   <v>       0.14940024       0.35061135       0.00000711 </v>
   <v>       0.48273357       0.35061135       0.00000711 </v>
   <v>       0.81606690       0.35061135       0.00000711 </v>
   <v>       0.14940024       0.68394468       0.00000711 </v>
   <v>       0.48273357       0.68394468       0.00000711 </v>
   <v>       0.81606690       0.68394468       0.00000711 </v>
   <v>       0.14940024       0.01727802       0.50000711 </v>
   <v>       0.48273357       0.01727802       0.50000711 </v>
   <v>       0.81606690       0.01727802       0.50000711 </v>
   <v>       0.14940024       0.35061135       0.50000711 </v>
   <v>       0.48273357       0.35061135       0.50000711 </v>
   <v>       0.81606690       0.35061135       0.50000711 </v>
   <v>       0.14940024       0.68394468       0.50000711 </v>
   <v>       0.48273357       0.68394468       0.50000711 </v>
   <v>       0.81606690       0.68394468       0.50000711 </v>
   <v>       0.31605532       0.18393310       0.49999289 </v>
   <v>       0.64938865       0.18393310       0.49999289 </v>
   <v>       0.98272198       0.18393310       0.49999289 </v>
   <v>       0.31605532       0.51726643       0.49999289 </v>
   <v>       0.64938865       0.51726643       0.49999289 </v>
   <v>       0.98272198       0.51726643       0.49999289 </v>
   <v>       0.31605532       0.85059976       0.49999289 </v>
   <v>       0.64938865       0.85059976       0.49999289 </v>
   <v>       0.98272198       0.85059976       0.49999289 </v>
   <v>       0.31605532       0.18393310       0.99999289 </v>
   <v>       0.64938865       0.18393310       0.99999289 </v>
   <v>       0.98272198       0.18393310       0.99999289 </v>
   <v>       0.31605532       0.51726643       0.99999289 </v>
   <v>       0.64938865       0.51726643       0.99999289 </v>
   <v>       0.98272198       0.51726643       0.99999289 </v>
   <v>       0.31605532       0.85059976       0.99999289 </v>
   <v>       0.64938865       0.85059976       0.99999289 </v>
   <v>       0.98272198       0.85059976       0.99999289 </v>
   <v>       0.31606288       0.01727079       0.00000000 </v>
   <v>       0.64939621       0.01727079       0.00000000 </v>
   <v>       0.98272954       0.01727079       0.00000000 </v>
   <v>       0.31606288       0.35060413       0.00000000 </v>
   <v>       0.64939621       0.35060413       0.00000000 </v>
   <v>       0.98272954       0.35060413       0.00000000 </v>
   <v>       0.31606288       0.68393746       0.00000000 </v>
   <v>       0.64939621       0.68393746       0.00000000 </v>
   <v>       0.98272954       0.68393746       0.00000000 </v>
   <v>       0.31606288       0.01727079       0.50000000 </v>
   <v>       0.64939621       0.01727079       0.50000000 </v>
   <v>       0.98272954       0.01727079       0.50000000 </v>
   <v>       0.31606288       0.35060413       0.50000000 </v>
   <v>       0.64939621       0.35060413       0.50000000 </v>
   <v>       0.98272954       0.35060413       0.50000000 </v>
   <v>       0.31606288       0.68393746       0.50000000 </v>
   <v>       0.64939621       0.68393746       0.50000000 </v>
   <v>       0.98272954       0.68393746       0.50000000 </v>
   <v>       0.19934057       0.23388678       0.14983771 </v>
   <v>       0.53267391       0.23388678       0.14983771 </v>
   <v>       0.86600724       0.23388678       0.14983771 </v>
   <v>       0.19934057       0.56722011       0.14983771 </v>
   <v>       0.53267391       0.56722011       0.14983771 </v>
   <v>       0.86600724       0.56722011       0.14983771 </v>
   <v>       0.19934057       0.90055344       0.14983771 </v>
   <v>       0.53267391       0.90055344       0.14983771 </v>
   <v>       0.86600724       0.90055344       0.14983771 </v>
   <v>       0.19934057       0.23388678       0.64983771 </v>
   <v>       0.53267391       0.23388678       0.64983771 </v>
   <v>       0.86600724       0.23388678       0.64983771 </v>
   <v>       0.19934057       0.56722011       0.64983771 </v>
   <v>       0.53267391       0.56722011       0.64983771 </v>
   <v>       0.86600724       0.56722011       0.64983771 </v>
   <v>       0.19934057       0.90055344       0.64983771 </v>
   <v>       0.53267391       0.90055344       0.64983771 </v>
   <v>       0.86600724       0.90055344       0.64983771 </v>
   <v>       0.09944656       0.13399276       0.35016229 </v>
   <v>       0.43277989       0.13399276       0.35016229 </v>
   <v>       0.76611322       0.13399276       0.35016229 </v>
   <v>       0.09944656       0.46732609       0.35016229 </v>
   <v>       0.43277989       0.46732609       0.35016229 </v>
   <v>       0.76611322       0.46732609       0.35016229 </v>
   <v>       0.09944656       0.80065943       0.35016229 </v>
   <v>       0.43277989       0.80065943       0.35016229 </v>
   <v>       0.76611322       0.80065943       0.35016229 </v>
   <v>       0.09944656       0.13399276       0.85016229 </v>
   <v>       0.43277989       0.13399276       0.85016229 </v>
   <v>       0.76611322       0.13399276       0.85016229 </v>
   <v>       0.09944656       0.46732609       0.85016229 </v>
   <v>       0.43277989       0.46732609       0.85016229 </v>
   <v>       0.76611322       0.46732609       0.85016229 </v>
   <v>       0.09944656       0.80065943       0.85016229 </v>
   <v>       0.43277989       0.80065943       0.85016229 </v>
   <v>       0.76611322       0.80065943       0.85016229 </v>
   <v>       0.03603208       0.06971249       0.15990037 </v>
   <v>       0.36936541       0.07057630       0.15990037 </v>
   <v>       0.70269875       0.07057630       0.15990037 </v>
   <v>       0.03603208       0.40390964       0.15990037 </v>
   <v>       0.36936541       0.40390964       0.15990037 </v>
   <v>       0.70269875       0.40390964       0.15990037 </v>
   <v>       0.03603208       0.73724297       0.15990037 </v>
   <v>       0.36936541       0.73724297       0.15990037 </v>
   <v>       0.70269875       0.73724297       0.15990037 </v>
   <v>       0.03603208       0.07057630       0.65990037 </v>
   <v>       0.36936541       0.07057630       0.65990037 </v>
   <v>       0.70269875       0.07057630       0.65990037 </v>
   <v>       0.03603208       0.40390964       0.65990037 </v>
   <v>       0.36936541       0.40390964       0.65990037 </v>
   <v>       0.70269875       0.40390964       0.65990037 </v>
   <v>       0.03603208       0.73724297       0.65990037 </v>
   <v>       0.36936541       0.73724297       0.65990037 </v>
   <v>       0.70269875       0.73724297       0.65990037 </v>
   <v>       0.26275703       0.29730125       0.34009963 </v>
   <v>       0.59609036       0.29730125       0.34009963 </v>
   <v>       0.92942370       0.29730125       0.34009963 </v>
   <v>       0.26275703       0.63063459       0.34009963 </v>
   <v>       0.59609036       0.63063459       0.34009963 </v>
   <v>       0.92942370       0.63063459       0.34009963 </v>
   <v>       0.26275703       0.96396792       0.34009963 </v>
   <v>       0.59609036       0.96396792       0.34009963 </v>
   <v>       0.92942370       0.96396792       0.34009963 </v>
   <v>       0.26275703       0.29730125       0.84009963 </v>
   <v>       0.59609036       0.29730125       0.84009963 </v>
   <v>       0.92942370       0.29730125       0.84009963 </v>
   <v>       0.26275703       0.63063459       0.84009963 </v>
   <v>       0.59609036       0.63063459       0.84009963 </v>
   <v>       0.92942370       0.63063459       0.84009963 </v>
   <v>       0.26275703       0.96396792       0.84009963 </v>
   <v>       0.59609036       0.96396792       0.84009963 </v>
   <v>       0.92942370       0.96396792       0.84009963 </v>
  </varray>
 </structure>
</modeling>
