 120 120   0   0
  0.1228332E+02  0.1173587E-08  0.1121847E-08  0.1119562E-08  0.5000000E-15
  1.000000000000000E-004
  CAR 
 unknown system                          
     16.71885494    -54.73075180  301      4.39379778      1.00000000
    -54.731  0.0000E+00  0.0000E+00  0.0000E+00  0.0000E+00
    -54.493  0.0000E+00  0.0000E+00  0.0000E+00  0.0000E+00
    -54.254  0.0000E+00  0.0000E+00  0.0000E+00  0.0000E+00
    -54.016  0.0000E+00  0.0000E+00  0.0000E+00  0.0000E+00
    -53.778  0.0000E+00  0.0000E+00  0.0000E+00  0.0000E+00
    -53.540  0.0000E+00  0.0000E+00  0.0000E+00  0.0000E+00
    -53.302  0.0000E+00  0.0000E+00  0.0000E+00  0.0000E+00
    -53.064  0.0000E+00  0.0000E+00  0.0000E+00  0.0000E+00
    -52.825  0.0000E+00  0.0000E+00  0.0000E+00  0.0000E+00
    -52.587  0.0000E+00  0.0000E+00  0.0000E+00  0.0000E+00
    -52.349  0.0000E+00  0.0000E+00  0.0000E+00  0.0000E+00
    -52.111  0.0000E+00  0.0000E+00  0.0000E+00  0.0000E+00
    -51.873  0.0000E+00  0.0000E+00  0.0000E+00  0.0000E+00
    -51.635  0.2504E-03  0.0000E+00  0.5962E-04  0.0000E+00
    -51.396  0.9785E+02  0.0000E+00  0.2330E+02  0.0000E+00
    -51.158  0.2919E+01  0.0000E+00  0.2400E+02  0.0000E+00
    -50.920  0.0000E+00  0.0000E+00  0.2400E+02  0.0000E+00
    -50.682  0.0000E+00  0.0000E+00  0.2400E+02  0.0000E+00
    -50.444  0.2331E-09  0.0000E+00  0.2400E+02  0.0000E+00
    -50.206  0.4276E+02  0.0000E+00  0.3418E+02  0.0000E+00
    -49.967  0.1320E+03  0.0000E+00  0.6562E+02  0.0000E+00
    -49.729  0.2680E+02  0.0000E+00  0.7200E+02  0.0000E+00
    -49.491  0.0000E+00  0.0000E+00  0.7200E+02  0.0000E+00
    -49.253  0.0000E+00  0.0000E+00  0.7200E+02  0.0000E+00
    -49.015  0.0000E+00  0.0000E+00  0.7200E+02  0.0000E+00
    -48.777  0.0000E+00  0.0000E+00  0.7200E+02  0.0000E+00
    -48.538  0.0000E+00  0.0000E+00  0.7200E+02  0.0000E+00
    -48.300  0.0000E+00  0.0000E+00  0.7200E+02  0.0000E+00
    -48.062  0.0000E+00  0.0000E+00  0.7200E+02  0.0000E+00
    -47.824  0.0000E+00  0.0000E+00  0.7200E+02  0.0000E+00
    -47.586  0.0000E+00  0.0000E+00  0.7200E+02  0.0000E+00
    -47.348  0.0000E+00  0.0000E+00  0.7200E+02  0.0000E+00
    -47.109  0.0000E+00  0.0000E+00  0.7200E+02  0.0000E+00
    -46.871  0.0000E+00  0.5673E-01  0.7200E+02  0.1351E-01
    -46.633  0.0000E+00  0.1006E+03  0.7200E+02  0.2397E+02
    -46.395  0.0000E+00  0.9429E+02  0.7200E+02  0.4643E+02
    -46.157  0.0000E+00  0.1074E+03  0.7200E+02  0.7200E+02
    -45.919  0.0000E+00  0.0000E+00  0.7200E+02  0.7200E+02
    -45.680  0.0000E+00  0.0000E+00  0.7200E+02  0.7200E+02
    -45.442  0.0000E+00  0.0000E+00  0.7200E+02  0.7200E+02
    -45.204  0.0000E+00  0.0000E+00  0.7200E+02  0.7200E+02
    -44.966  0.0000E+00  0.0000E+00  0.7200E+02  0.7200E+02
    -44.728  0.0000E+00  0.0000E+00  0.7200E+02  0.7200E+02
    -44.490  0.0000E+00  0.0000E+00  0.7200E+02  0.7200E+02
    -44.251  0.0000E+00  0.0000E+00  0.7200E+02  0.7200E+02
    -44.013  0.0000E+00  0.0000E+00  0.7200E+02  0.7200E+02
    -43.775  0.0000E+00  0.0000E+00  0.7200E+02  0.7200E+02
    -43.537  0.0000E+00  0.0000E+00  0.7200E+02  0.7200E+02
    -43.299  0.0000E+00  0.0000E+00  0.7200E+02  0.7200E+02
    -43.061  0.0000E+00  0.0000E+00  0.7200E+02  0.7200E+02
    -42.822  0.0000E+00  0.0000E+00  0.7200E+02  0.7200E+02
    -42.584  0.0000E+00  0.0000E+00  0.7200E+02  0.7200E+02
    -42.346  0.0000E+00  0.0000E+00  0.7200E+02  0.7200E+02
    -42.108  0.0000E+00  0.0000E+00  0.7200E+02  0.7200E+02
    -41.870  0.0000E+00  0.0000E+00  0.7200E+02  0.7200E+02
    -41.632  0.0000E+00  0.0000E+00  0.7200E+02  0.7200E+02
    -41.393  0.0000E+00  0.0000E+00  0.7200E+02  0.7200E+02
    -41.155  0.0000E+00  0.0000E+00  0.7200E+02  0.7200E+02
    -40.917  0.0000E+00  0.0000E+00  0.7200E+02  0.7200E+02
    -40.679  0.1533E-03  0.4638E-04  0.7200E+02  0.7200E+02
    -40.441  0.9826E+02  0.9648E+02  0.9540E+02  0.9498E+02
    -40.203  0.1031E+03  0.1049E+03  0.1200E+03  0.1200E+03
    -39.964  0.2021E+00  0.2096E+00  0.1200E+03  0.1200E+03
    -39.726  0.0000E+00  0.0000E+00  0.1200E+03  0.1200E+03
    -39.488  0.0000E+00  0.0000E+00  0.1200E+03  0.1200E+03
    -39.250  0.0000E+00  0.0000E+00  0.1200E+03  0.1200E+03
    -39.012  0.0000E+00  0.0000E+00  0.1200E+03  0.1200E+03
    -38.774  0.0000E+00  0.0000E+00  0.1200E+03  0.1200E+03
    -38.536  0.0000E+00  0.0000E+00  0.1200E+03  0.1200E+03
    -38.297  0.0000E+00  0.0000E+00  0.1200E+03  0.1200E+03
    -38.059  0.0000E+00  0.0000E+00  0.1200E+03  0.1200E+03
    -37.821  0.0000E+00  0.0000E+00  0.1200E+03  0.1200E+03
    -37.583  0.0000E+00  0.0000E+00  0.1200E+03  0.1200E+03
    -37.345  0.0000E+00  0.0000E+00  0.1200E+03  0.1200E+03
    -37.107  0.0000E+00  0.0000E+00  0.1200E+03  0.1200E+03
    -36.868  0.0000E+00  0.0000E+00  0.1200E+03  0.1200E+03
    -36.630  0.0000E+00  0.0000E+00  0.1200E+03  0.1200E+03
    -36.392  0.0000E+00  0.0000E+00  0.1200E+03  0.1200E+03
    -36.154  0.0000E+00  0.0000E+00  0.1200E+03  0.1200E+03
    -35.916  0.0000E+00  0.0000E+00  0.1200E+03  0.1200E+03
    -35.678  0.0000E+00  0.0000E+00  0.1200E+03  0.1200E+03
    -35.439  0.0000E+00  0.0000E+00  0.1200E+03  0.1200E+03
    -35.201  0.0000E+00  0.0000E+00  0.1200E+03  0.1200E+03
    -34.963  0.0000E+00  0.0000E+00  0.1200E+03  0.1200E+03
    -34.725  0.0000E+00  0.0000E+00  0.1200E+03  0.1200E+03
    -34.487  0.0000E+00  0.0000E+00  0.1200E+03  0.1200E+03
    -34.249  0.0000E+00  0.0000E+00  0.1200E+03  0.1200E+03
    -34.010  0.0000E+00  0.0000E+00  0.1200E+03  0.1200E+03
    -33.772  0.0000E+00  0.0000E+00  0.1200E+03  0.1200E+03
    -33.534  0.0000E+00  0.0000E+00  0.1200E+03  0.1200E+03
    -33.296  0.0000E+00  0.0000E+00  0.1200E+03  0.1200E+03
    -33.058  0.0000E+00  0.0000E+00  0.1200E+03  0.1200E+03
    -32.820  0.0000E+00  0.0000E+00  0.1200E+03  0.1200E+03
    -32.581  0.0000E+00  0.0000E+00  0.1200E+03  0.1200E+03
    -32.343  0.0000E+00  0.0000E+00  0.1200E+03  0.1200E+03
    -32.105  0.0000E+00  0.0000E+00  0.1200E+03  0.1200E+03
    -31.867  0.0000E+00  0.0000E+00  0.1200E+03  0.1200E+03
    -31.629  0.0000E+00  0.0000E+00  0.1200E+03  0.1200E+03
    -31.391  0.0000E+00  0.0000E+00  0.1200E+03  0.1200E+03
    -31.152  0.0000E+00  0.0000E+00  0.1200E+03  0.1200E+03
    -30.914  0.0000E+00  0.0000E+00  0.1200E+03  0.1200E+03
    -30.676  0.0000E+00  0.0000E+00  0.1200E+03  0.1200E+03
    -30.438  0.0000E+00  0.0000E+00  0.1200E+03  0.1200E+03
    -30.200  0.0000E+00  0.0000E+00  0.1200E+03  0.1200E+03
    -29.962  0.0000E+00  0.0000E+00  0.1200E+03  0.1200E+03
    -29.723  0.0000E+00  0.0000E+00  0.1200E+03  0.1200E+03
    -29.485  0.0000E+00  0.0000E+00  0.1200E+03  0.1200E+03
    -29.247  0.0000E+00  0.0000E+00  0.1200E+03  0.1200E+03
    -29.009  0.0000E+00  0.0000E+00  0.1200E+03  0.1200E+03
    -28.771  0.0000E+00  0.0000E+00  0.1200E+03  0.1200E+03
    -28.533  0.0000E+00  0.0000E+00  0.1200E+03  0.1200E+03
    -28.294  0.0000E+00  0.0000E+00  0.1200E+03  0.1200E+03
    -28.056  0.0000E+00  0.0000E+00  0.1200E+03  0.1200E+03
    -27.818  0.0000E+00  0.0000E+00  0.1200E+03  0.1200E+03
    -27.580  0.0000E+00  0.0000E+00  0.1200E+03  0.1200E+03
    -27.342  0.0000E+00  0.0000E+00  0.1200E+03  0.1200E+03
    -27.104  0.0000E+00  0.0000E+00  0.1200E+03  0.1200E+03
    -26.865  0.0000E+00  0.0000E+00  0.1200E+03  0.1200E+03
    -26.627  0.0000E+00  0.0000E+00  0.1200E+03  0.1200E+03
    -26.389  0.0000E+00  0.0000E+00  0.1200E+03  0.1200E+03
    -26.151  0.0000E+00  0.0000E+00  0.1200E+03  0.1200E+03
    -25.913  0.0000E+00  0.0000E+00  0.1200E+03  0.1200E+03
    -25.675  0.0000E+00  0.0000E+00  0.1200E+03  0.1200E+03
    -25.436  0.0000E+00  0.0000E+00  0.1200E+03  0.1200E+03
    -25.198  0.0000E+00  0.0000E+00  0.1200E+03  0.1200E+03
    -24.960  0.0000E+00  0.0000E+00  0.1200E+03  0.1200E+03
    -24.722  0.0000E+00  0.0000E+00  0.1200E+03  0.1200E+03
    -24.484  0.0000E+00  0.0000E+00  0.1200E+03  0.1200E+03
    -24.246  0.0000E+00  0.0000E+00  0.1200E+03  0.1200E+03
    -24.007  0.0000E+00  0.0000E+00  0.1200E+03  0.1200E+03
    -23.769  0.0000E+00  0.0000E+00  0.1200E+03  0.1200E+03
    -23.531  0.0000E+00  0.0000E+00  0.1200E+03  0.1200E+03
    -23.293  0.0000E+00  0.0000E+00  0.1200E+03  0.1200E+03
    -23.055  0.0000E+00  0.0000E+00  0.1200E+03  0.1200E+03
    -22.817  0.0000E+00  0.0000E+00  0.1200E+03  0.1200E+03
    -22.578  0.0000E+00  0.0000E+00  0.1200E+03  0.1200E+03
    -22.340  0.0000E+00  0.0000E+00  0.1200E+03  0.1200E+03
    -22.102  0.0000E+00  0.0000E+00  0.1200E+03  0.1200E+03
    -21.864  0.0000E+00  0.0000E+00  0.1200E+03  0.1200E+03
    -21.626  0.0000E+00  0.0000E+00  0.1200E+03  0.1200E+03
    -21.388  0.0000E+00  0.0000E+00  0.1200E+03  0.1200E+03
    -21.149  0.0000E+00  0.0000E+00  0.1200E+03  0.1200E+03
    -20.911  0.0000E+00  0.0000E+00  0.1200E+03  0.1200E+03
    -20.673  0.0000E+00  0.0000E+00  0.1200E+03  0.1200E+03
    -20.435  0.0000E+00  0.0000E+00  0.1200E+03  0.1200E+03
    -20.197  0.0000E+00  0.0000E+00  0.1200E+03  0.1200E+03
    -19.959  0.0000E+00  0.0000E+00  0.1200E+03  0.1200E+03
    -19.720  0.0000E+00  0.0000E+00  0.1200E+03  0.1200E+03
    -19.482  0.0000E+00  0.0000E+00  0.1200E+03  0.1200E+03
    -19.244  0.0000E+00  0.0000E+00  0.1200E+03  0.1200E+03
    -19.006  0.0000E+00  0.0000E+00  0.1200E+03  0.1200E+03
    -18.768  0.0000E+00  0.0000E+00  0.1200E+03  0.1200E+03
    -18.530  0.0000E+00  0.0000E+00  0.1200E+03  0.1200E+03
    -18.291  0.0000E+00  0.0000E+00  0.1200E+03  0.1200E+03
    -18.053  0.0000E+00  0.0000E+00  0.1200E+03  0.1200E+03
    -17.815  0.0000E+00  0.0000E+00  0.1200E+03  0.1200E+03
    -17.577  0.0000E+00  0.0000E+00  0.1200E+03  0.1200E+03
    -17.339  0.0000E+00  0.0000E+00  0.1200E+03  0.1200E+03
    -17.101  0.0000E+00  0.0000E+00  0.1200E+03  0.1200E+03
    -16.862  0.0000E+00  0.0000E+00  0.1200E+03  0.1200E+03
    -16.624  0.0000E+00  0.0000E+00  0.1200E+03  0.1200E+03
    -16.386  0.0000E+00  0.0000E+00  0.1200E+03  0.1200E+03
    -16.148  0.0000E+00  0.0000E+00  0.1200E+03  0.1200E+03
    -15.910  0.0000E+00  0.0000E+00  0.1200E+03  0.1200E+03
    -15.672  0.0000E+00  0.0000E+00  0.1200E+03  0.1200E+03
    -15.433  0.0000E+00  0.0000E+00  0.1200E+03  0.1200E+03
    -15.195  0.0000E+00  0.0000E+00  0.1200E+03  0.1200E+03
    -14.957  0.0000E+00  0.0000E+00  0.1200E+03  0.1200E+03
    -14.719  0.0000E+00  0.0000E+00  0.1200E+03  0.1200E+03
    -14.481  0.0000E+00  0.0000E+00  0.1200E+03  0.1200E+03
    -14.243  0.0000E+00  0.0000E+00  0.1200E+03  0.1200E+03
    -14.004  0.0000E+00  0.0000E+00  0.1200E+03  0.1200E+03
    -13.766  0.4080E-09  0.0000E+00  0.1200E+03  0.1200E+03
    -13.528  0.7294E+01  0.3453E-16  0.1217E+03  0.1200E+03
    -13.290  0.5979E+02  0.2039E+00  0.1360E+03  0.1200E+03
    -13.052  0.3368E+02  0.6474E+02  0.1440E+03  0.1355E+03
    -12.814  0.5671E-03  0.3582E+02  0.1440E+03  0.1440E+03
    -12.575  0.0000E+00  0.8511E-04  0.1440E+03  0.1440E+03
    -12.337  0.0000E+00  0.0000E+00  0.1440E+03  0.1440E+03
    -12.099  0.0000E+00  0.0000E+00  0.1440E+03  0.1440E+03
    -11.861  0.0000E+00  0.0000E+00  0.1440E+03  0.1440E+03
    -11.623  0.0000E+00  0.0000E+00  0.1440E+03  0.1440E+03
    -11.385  0.0000E+00  0.0000E+00  0.1440E+03  0.1440E+03
    -11.146  0.0000E+00  0.0000E+00  0.1440E+03  0.1440E+03
    -10.908  0.0000E+00  0.0000E+00  0.1440E+03  0.1440E+03
    -10.670  0.0000E+00  0.0000E+00  0.1440E+03  0.1440E+03
    -10.432  0.0000E+00  0.0000E+00  0.1440E+03  0.1440E+03
    -10.194  0.0000E+00  0.0000E+00  0.1440E+03  0.1440E+03
     -9.956  0.0000E+00  0.0000E+00  0.1440E+03  0.1440E+03
     -9.717  0.0000E+00  0.0000E+00  0.1440E+03  0.1440E+03
     -9.479  0.0000E+00  0.0000E+00  0.1440E+03  0.1440E+03
     -9.241  0.0000E+00  0.0000E+00  0.1440E+03  0.1440E+03
     -9.003  0.0000E+00  0.0000E+00  0.1440E+03  0.1440E+03
     -8.765  0.0000E+00  0.0000E+00  0.1440E+03  0.1440E+03
     -8.527  0.0000E+00  0.0000E+00  0.1440E+03  0.1440E+03
     -8.289  0.0000E+00  0.0000E+00  0.1440E+03  0.1440E+03
     -8.050  0.0000E+00  0.0000E+00  0.1440E+03  0.1440E+03
     -7.812  0.6286E-02  0.3453E-16  0.1440E+03  0.1440E+03
     -7.574  0.1734E+02  0.7976E-01  0.1481E+03  0.1440E+03
     -7.336  0.4734E+02  0.2754E+02  0.1594E+03  0.1506E+03
     -7.098  0.3496E+02  0.4937E+02  0.1677E+03  0.1623E+03
     -6.860  0.1128E+01  0.2292E+02  0.1680E+03  0.1678E+03
     -6.621  0.0000E+00  0.8500E+00  0.1680E+03  0.1680E+03
     -6.383  0.0000E+00  0.0000E+00  0.1680E+03  0.1680E+03
     -6.145  0.0000E+00  0.0000E+00  0.1680E+03  0.1680E+03
     -5.907  0.0000E+00  0.0000E+00  0.1680E+03  0.1680E+03
     -5.669  0.0000E+00  0.0000E+00  0.1680E+03  0.1680E+03
     -5.431  0.0000E+00  0.0000E+00  0.1680E+03  0.1680E+03
     -5.192  0.0000E+00  0.0000E+00  0.1680E+03  0.1680E+03
     -4.954  0.0000E+00  0.0000E+00  0.1680E+03  0.1680E+03
     -4.716  0.0000E+00  0.0000E+00  0.1680E+03  0.1680E+03
     -4.478  0.0000E+00  0.0000E+00  0.1680E+03  0.1680E+03
     -4.240  0.0000E+00  0.0000E+00  0.1680E+03  0.1680E+03
     -4.002  0.0000E+00  0.0000E+00  0.1680E+03  0.1680E+03
     -3.763  0.0000E+00  0.0000E+00  0.1680E+03  0.1680E+03
     -3.525  0.0000E+00  0.0000E+00  0.1680E+03  0.1680E+03
     -3.287  0.0000E+00  0.0000E+00  0.1680E+03  0.1680E+03
     -3.049  0.0000E+00  0.0000E+00  0.1680E+03  0.1680E+03
     -2.811  0.0000E+00  0.0000E+00  0.1680E+03  0.1680E+03
     -2.573  0.0000E+00  0.0000E+00  0.1680E+03  0.1680E+03
     -2.334  0.0000E+00  0.0000E+00  0.1680E+03  0.1680E+03
     -2.096  0.6673E-06  0.0000E+00  0.1680E+03  0.1680E+03
     -1.858  0.6655E+01  0.0000E+00  0.1696E+03  0.1680E+03
     -1.620  0.5689E+02  0.0000E+00  0.1831E+03  0.1680E+03
     -1.382  0.4342E+02  0.0000E+00  0.1935E+03  0.1680E+03
     -1.144  0.3199E+02  0.0000E+00  0.2011E+03  0.1680E+03
     -0.905  0.5281E+02  0.4947E-09  0.2137E+03  0.1680E+03
     -0.667  0.5389E+02  0.1436E+01  0.2265E+03  0.1683E+03
     -0.429  0.6612E+02  0.1644E+02  0.2423E+03  0.1723E+03
     -0.191  0.5577E+02  0.3852E+02  0.2555E+03  0.1814E+03
      0.047  0.3408E+02  0.3605E+02  0.2637E+03  0.1900E+03
      0.285  0.5460E+02  0.2164E+02  0.2767E+03  0.1952E+03
      0.524  0.4837E+02  0.4858E+02  0.2882E+03  0.2067E+03
      0.762  0.3258E+02  0.4810E+02  0.2959E+03  0.2182E+03
      1.000  0.4970E+02  0.6821E+02  0.3078E+03  0.2344E+03
      1.238  0.4790E+02  0.2814E+02  0.3192E+03  0.2411E+03
      1.476  0.5472E+02  0.2217E+02  0.3322E+03  0.2464E+03
      1.714  0.6190E+02  0.3741E+02  0.3470E+03  0.2553E+03
      1.953  0.3516E+02  0.4610E+02  0.3553E+03  0.2663E+03
      2.191  0.2526E+02  0.3009E+02  0.3613E+03  0.2735E+03
      2.429  0.1309E+02  0.3592E+02  0.3645E+03  0.2820E+03
      2.667  0.3759E+02  0.2527E+02  0.3734E+03  0.2881E+03
      2.905  0.3839E+02  0.4561E+02  0.3826E+03  0.2989E+03
      3.143  0.3002E+02  0.4188E+02  0.3897E+03  0.3089E+03
      3.382  0.4335E+02  0.1550E+02  0.4000E+03  0.3126E+03
      3.620  0.5299E+02  0.2859E+02  0.4127E+03  0.3194E+03
      3.858  0.4815E+02  0.5785E+02  0.4241E+03  0.3332E+03
      4.096  0.3040E+02  0.1190E+02  0.4314E+03  0.3360E+03
      4.334  0.2671E+01  0.3274E-04  0.4320E+03  0.3360E+03
      4.572  0.0000E+00  0.0000E+00  0.4320E+03  0.3360E+03
      4.811  0.0000E+00  0.0000E+00  0.4320E+03  0.3360E+03
      5.049  0.0000E+00  0.0000E+00  0.4320E+03  0.3360E+03
      5.287  0.0000E+00  0.0000E+00  0.4320E+03  0.3360E+03
      5.525  0.0000E+00  0.0000E+00  0.4320E+03  0.3360E+03
      5.763  0.0000E+00  0.0000E+00  0.4320E+03  0.3360E+03
      6.001  0.0000E+00  0.1676E-02  0.4320E+03  0.3360E+03
      6.240  0.0000E+00  0.1736E+01  0.4320E+03  0.3364E+03
      6.478  0.0000E+00  0.1283E+02  0.4320E+03  0.3395E+03
      6.716  0.0000E+00  0.2677E+02  0.4320E+03  0.3458E+03
      6.954  0.0000E+00  0.2483E+02  0.4320E+03  0.3518E+03
      7.192  0.2242E-05  0.5531E+02  0.4320E+03  0.3649E+03
      7.430  0.1547E+00  0.7742E+02  0.4320E+03  0.3834E+03
      7.669  0.6510E+00  0.2997E+02  0.4322E+03  0.3905E+03
      7.907  0.1396E+01  0.4072E+02  0.4325E+03  0.4002E+03
      8.145  0.4753E+01  0.7626E+02  0.4337E+03  0.4184E+03
      8.383  0.6704E+01  0.5311E+02  0.4353E+03  0.4310E+03
      8.621  0.1579E+02  0.4497E+01  0.4390E+03  0.4321E+03
      8.859  0.2356E+02  0.1032E+01  0.4446E+03  0.4323E+03
      9.098  0.1953E+02  0.4380E+01  0.4493E+03  0.4334E+03
      9.336  0.1941E+02  0.1014E+02  0.4539E+03  0.4358E+03
      9.574  0.2007E+02  0.2028E+02  0.4587E+03  0.4406E+03
      9.812  0.2430E+02  0.2863E+02  0.4645E+03  0.4474E+03
     10.050  0.2226E+02  0.2996E+02  0.4698E+03  0.4546E+03
     10.288  0.1769E+02  0.3041E+02  0.4740E+03  0.4618E+03
     10.527  0.2437E+02  0.2587E+02  0.4798E+03  0.4680E+03
     10.765  0.1571E+02  0.2606E+02  0.4835E+03  0.4742E+03
     11.003  0.2624E+02  0.2490E+02  0.4898E+03  0.4801E+03
     11.241  0.4520E+02  0.9990E+01  0.5005E+03  0.4825E+03
     11.479  0.4884E+02  0.2536E+02  0.5122E+03  0.4885E+03
     11.717  0.3599E+02  0.2923E+02  0.5207E+03  0.4955E+03
     11.956  0.2021E+02  0.5713E+02  0.5256E+03  0.5091E+03
     12.194  0.2099E+02  0.4475E+02  0.5306E+03  0.5198E+03
     12.432  0.2911E+02  0.2728E+02  0.5375E+03  0.5263E+03
     12.670  0.3329E+02  0.2347E+02  0.5454E+03  0.5319E+03
     12.908  0.1993E+02  0.2803E+02  0.5502E+03  0.5385E+03
     13.146  0.7615E+01  0.3282E+02  0.5520E+03  0.5463E+03
     13.385  0.8495E-01  0.1986E+02  0.5520E+03  0.5511E+03
     13.623  0.0000E+00  0.3878E+01  0.5520E+03  0.5520E+03
     13.861  0.0000E+00  0.4720E-05  0.5520E+03  0.5520E+03
     14.099  0.0000E+00  0.0000E+00  0.5520E+03  0.5520E+03
     14.337  0.0000E+00  0.0000E+00  0.5520E+03  0.5520E+03
     14.575  0.0000E+00  0.0000E+00  0.5520E+03  0.5520E+03
     14.814  0.0000E+00  0.0000E+00  0.5520E+03  0.5520E+03
     15.052  0.0000E+00  0.0000E+00  0.5520E+03  0.5520E+03
     15.290  0.0000E+00  0.0000E+00  0.5520E+03  0.5520E+03
     15.528  0.0000E+00  0.0000E+00  0.5520E+03  0.5520E+03
     15.766  0.0000E+00  0.0000E+00  0.5520E+03  0.5520E+03
     16.004  0.0000E+00  0.0000E+00  0.5520E+03  0.5520E+03
     16.243  0.0000E+00  0.0000E+00  0.5520E+03  0.5520E+03
     16.481  0.0000E+00  0.0000E+00  0.5520E+03  0.5520E+03
     16.719  0.0000E+00  0.0000E+00  0.5520E+03  0.5520E+03
