<?xml version="1.0" encoding="ISO-8859-1"?>
<modeling>
 <generator>
  <i name="program" type="string">vasp </i>
  <i name="version" type="string">5.4.4.18Apr17-6-g9f103f2a35  </i>
  <i name="subversion" type="string">(build Oct 25 2017 14:42:18) complex            parallel </i>
  <i name="platform" type="string">LinuxIFC </i>
  <i name="date" type="string">2021 04 16 </i>
  <i name="time" type="string">14:01:49 </i>
 </generator>
 <incar>
  <i type="string" name="PREC">accurate</i>
  <i type="string" name="ALGO"> normal</i>
  <i type="logical" name="ADDGRID"> T  </i>
  <i type="int" name="ISPIN">     2</i>
  <i type="int" name="ICHARG">     1</i>
  <i type="int" name="NELM">   200</i>
  <i type="int" name="NELMIN">     8</i>
  <i name="EDIFF">      0.00000100</i>
  <i type="int" name="ISIF">     3</i>
  <i type="int" name="ISYM">     0</i>
  <i name="ENCUT">    650.00000000</i>
  <v name="MAGMOM">      0.60000000      0.60000000      0.60000000      0.60000000      0.60000000      0.60000000      0.60000000      0.60000000      0.60000000      0.60000000      0.60000000      0.60000000      0.60000000      0.60000000      0.60000000      0.60000000      0.60000000      0.60000000      0.60000000      0.60000000
      0.60000000      0.60000000      0.60000000      0.60000000      0.60000000      0.60000000      0.60000000      0.60000000      0.60000000      0.60000000      0.60000000      0.60000000      0.60000000      0.60000000      0.60000000      0.60000000      0.60000000      0.60000000      0.60000000      0.60000000
      0.60000000      0.60000000      0.60000000      0.60000000      0.60000000      0.60000000      0.60000000      0.60000000      0.60000000      0.60000000      0.60000000      0.60000000      0.60000000      0.60000000      0.60000000      0.60000000      0.60000000      0.60000000      0.60000000      0.60000000
      0.60000000      0.60000000      0.60000000      0.60000000      0.60000000      0.60000000      0.60000000      0.60000000      0.60000000      0.60000000      0.60000000      0.60000000      0.60000000      0.60000000      0.60000000      0.60000000      0.60000000      0.60000000      0.60000000      0.60000000
      0.60000000      0.60000000      0.60000000      0.60000000      0.60000000      0.60000000      0.60000000      0.60000000      0.60000000      0.60000000      0.60000000      0.60000000      0.60000000      0.60000000      0.60000000      0.60000000      5.00000000      5.00000000      5.00000000      5.00000000
      5.00000000      5.00000000      5.00000000      5.00000000      5.00000000      5.00000000      5.00000000      5.00000000      5.00000000      5.00000000      5.00000000      5.00000000      5.00000000      5.00000000      5.00000000      5.00000000      5.00000000      5.00000000      5.00000000      5.00000000
</v>
  <i type="logical" name="LREAL"> F  </i>
  <i type="int" name="ISMEAR">     0</i>
  <i name="SIGMA">      0.05000000</i>
  <i type="int" name="NWRITE">     1</i>
  <i type="int" name="LMAXMIX">     4</i>
  <i type="logical" name="LWAVE"> F  </i>
  <i type="logical" name="LASPH"> T  </i>
  <v type="int" name="KPOINT_BSE">    -1     0     0     0</v>
  <i type="int" name="NELM">   200</i>
  <i type="string" name="GGA"> pe</i>
  <i type="logical" name="LDAU"> T  </i>
  <v type="int" name="LDAUTYPE">     2</v>
  <v type="int" name="LDAUL">    -1    -1    -1     2</v>
  <v name="LDAUU">      0.00000000      0.00000000      0.00000000      4.00000000</v>
  <v name="LDAUJ">      0.00000000      0.00000000      0.00000000      0.00000000</v>
  <i type="logical" name="LASPH"> T  </i>
 </incar>
 <structure name="primitive_cell" >
  <crystal>
   <varray name="basis" >
    <v>      11.73572724      -0.05744286       0.00000000 </v>
    <v>       0.05480788      11.21833490       0.00000000 </v>
    <v>       0.00000000       0.00000000      11.19562010 </v>
   </varray>
   <i name="volume">   1473.99817718 </i>
   <varray name="rec_basis" >
    <v>       0.08520785      -0.00041629       0.00000000 </v>
    <v>       0.00043630       0.08913766       0.00000000 </v>
    <v>       0.00000000       0.00000000       0.08932064 </v>
   </varray>
  </crystal>
  <varray name="positions" >
   <v>       0.03541706       0.36277547       0.35648149 </v>
   <v>      -0.13124269       0.36769238       0.37376509 </v>
   <v>       0.20209064       0.36769238       0.37376509 </v>
   <v>       0.03542751       0.37011947       0.12029448 </v>
   <v>      -0.13123875       0.21898060       0.27246215 </v>
   <v>      -0.13123875       0.46898060       0.22753785 </v>
   <v>       0.20209458       0.46898060       0.22753785 </v>
   <v>       0.20294667       0.21898060       0.27246215 </v>
   <v>       0.03542751       0.12011947       0.37970552 </v>
   <v>       0.03542751      -0.37988053       0.37970552 </v>
   <v>      -0.13123946       0.26225309      -0.48003463 </v>
   <v>       0.20209387       0.26225309      -0.48003463 </v>
   <v>      -0.13123946      -0.48774691       0.48003463 </v>
   <v>       0.20209387      -0.48774691       0.48003463 </v>
   <v>       0.03542751       0.37011947      -0.37970552 </v>
   <v>       0.03541706       0.11277547       0.14351851 </v>
   <v>       0.03541706      -0.38722453       0.14351851 </v>
   <v>       0.36875039       0.36277547       0.35648149 </v>
   <v>      -0.29791628       0.36277547       0.35648149 </v>
   <v>      -0.13124269       0.11769238       0.12623491 </v>
   <v>       0.20209064       0.11769238       0.12623491 </v>
   <v>       0.03541706       0.11277547      -0.35648149 </v>
   <v>       0.03541706      -0.38722453      -0.35648149 </v>
   <v>      -0.13124269      -0.38230762       0.12623491 </v>
   <v>       0.20209064      -0.38230762       0.12623491 </v>
   <v>      -0.13123946       0.26225309       0.01996537 </v>
   <v>       0.20209387       0.26225309       0.01996537 </v>
   <v>      -0.13124269       0.11769238      -0.37376509 </v>
   <v>       0.20209064       0.11769238      -0.37376509 </v>
   <v>      -0.13123875      -0.28101940       0.27246215 </v>
   <v>       0.20209458      -0.28101940       0.27246215 </v>
   <v>      -0.13124269      -0.38230762      -0.37376509 </v>
   <v>       0.20209064      -0.38230762      -0.37376509 </v>
   <v>      -0.13123946       0.01225309       0.48003463 </v>
   <v>       0.20209387       0.01225309       0.48003463 </v>
   <v>      -0.29790582       0.37011947       0.12029448 </v>
   <v>       0.36876084       0.37011947       0.12029448 </v>
   <v>      -0.13123875       0.46898060      -0.27246215 </v>
   <v>       0.20209458       0.46898060      -0.27246215 </v>
   <v>      -0.29790582       0.12011947       0.37970552 </v>
   <v>       0.36876084       0.12011947       0.37970552 </v>
   <v>      -0.29790582      -0.37988053       0.37970552 </v>
   <v>       0.36876084      -0.37988053       0.37970552 </v>
   <v>      -0.29790582       0.37011947      -0.37970552 </v>
   <v>       0.36876084       0.37011947      -0.37970552 </v>
   <v>      -0.13123946      -0.48774691      -0.01996537 </v>
   <v>       0.20209387      -0.48774691      -0.01996537 </v>
   <v>      -0.13123875      -0.03101940       0.22753785 </v>
   <v>       0.20209458      -0.03101940       0.22753785 </v>
   <v>      -0.13123946      -0.23774691      -0.48003463 </v>
   <v>       0.20209387      -0.23774691      -0.48003463 </v>
   <v>      -0.13123875       0.21898060      -0.22753785 </v>
   <v>       0.20209458       0.21898060      -0.22753785 </v>
   <v>       0.36875039      -0.38722453       0.14351851 </v>
   <v>      -0.29791628       0.11277547       0.14351851 </v>
   <v>       0.36875039       0.11277547       0.14351851 </v>
   <v>      -0.29791628      -0.38722453       0.14351851 </v>
   <v>       0.03541706       0.36277547      -0.14351851 </v>
   <v>       0.03541706      -0.13722453       0.35648149 </v>
   <v>      -0.13124269       0.36769238      -0.12623491 </v>
   <v>       0.20209064       0.36769238      -0.12623491 </v>
   <v>       0.36875039      -0.38722453      -0.35648149 </v>
   <v>      -0.29791628       0.11277547      -0.35648149 </v>
   <v>       0.36875039       0.11277547      -0.35648149 </v>
   <v>      -0.29791628      -0.38722453      -0.35648149 </v>
   <v>      -0.46457602       0.36769238       0.37376509 </v>
   <v>      -0.13124269      -0.13230762       0.37376509 </v>
   <v>       0.20209064      -0.13230762       0.37376509 </v>
   <v>       0.03542751       0.12011947      -0.12029448 </v>
   <v>       0.03542751      -0.37988053      -0.12029448 </v>
   <v>      -0.13123946       0.01225309      -0.01996537 </v>
   <v>       0.20209387       0.01225309      -0.01996537 </v>
   <v>       0.03542751      -0.12988053       0.12029448 </v>
   <v>      -0.46457208       0.21898060       0.27246215 </v>
   <v>      -0.46457208       0.46898060       0.22753785 </v>
   <v>      -0.13123946      -0.23774691       0.01996537 </v>
   <v>       0.20209387      -0.23774691       0.01996537 </v>
   <v>      -0.46457280       0.26225309      -0.48003463 </v>
   <v>      -0.46457280      -0.48774691       0.48003463 </v>
   <v>       0.03542751      -0.12988053      -0.37970552 </v>
   <v>      -0.13123875      -0.03101940      -0.27246215 </v>
   <v>       0.20209458      -0.03101940      -0.27246215 </v>
   <v>      -0.13123875      -0.28101940      -0.22753785 </v>
   <v>       0.20209458      -0.28101940      -0.22753785 </v>
   <v>       0.36875039       0.36277547      -0.14351851 </v>
   <v>      -0.29791628       0.36277547      -0.14351851 </v>
   <v>       0.36875039      -0.13722453       0.35648149 </v>
   <v>      -0.29791628      -0.13722453       0.35648149 </v>
   <v>      -0.46457602       0.11769238       0.12623491 </v>
   <v>      -0.46457602      -0.38230762       0.12623491 </v>
   <v>      -0.46457280       0.26225309       0.01996537 </v>
   <v>      -0.46457602       0.11769238      -0.37376509 </v>
   <v>      -0.29790582       0.12011947      -0.12029448 </v>
   <v>       0.36876084       0.12011947      -0.12029448 </v>
   <v>      -0.46457208      -0.28101940       0.27246215 </v>
   <v>      -0.46457602      -0.38230762      -0.37376509 </v>
   <v>      -0.46457280       0.01225309       0.48003463 </v>
   <v>      -0.29790582      -0.37988053      -0.12029448 </v>
   <v>       0.36876084      -0.37988053      -0.12029448 </v>
   <v>      -0.29790582      -0.12988053       0.12029448 </v>
   <v>       0.36876084      -0.12988053       0.12029448 </v>
   <v>      -0.46457208       0.46898060      -0.27246215 </v>
   <v>      -0.29790582      -0.12988053      -0.37970552 </v>
   <v>       0.36876084      -0.12988053      -0.37970552 </v>
   <v>      -0.46457280      -0.48774691      -0.01996537 </v>
   <v>      -0.46457208      -0.03101940       0.22753785 </v>
   <v>      -0.46457280      -0.23774691      -0.48003463 </v>
   <v>      -0.46457208       0.21898060      -0.22753785 </v>
   <v>       0.03541706      -0.13722453      -0.14351851 </v>
   <v>      -0.46457602       0.36769238      -0.12623491 </v>
   <v>      -0.13124269      -0.13230762      -0.12623491 </v>
   <v>       0.20209064      -0.13230762      -0.12623491 </v>
   <v>      -0.46457602      -0.13230762       0.37376509 </v>
   <v>      -0.46457280       0.01225309      -0.01996537 </v>
   <v>      -0.46457280      -0.23774691       0.01996537 </v>
   <v>      -0.46457208      -0.03101940      -0.27246215 </v>
   <v>      -0.46457208      -0.28101940      -0.22753785 </v>
   <v>       0.36875039      -0.13722453      -0.14351851 </v>
   <v>      -0.29791628      -0.13722453      -0.14351851 </v>
   <v>      -0.46457602      -0.13230762      -0.12623491 </v>
  </varray>
 </structure>
 <varray name="primitive_index" >
  <v type="int" >        1 </v>
  <v type="int" >       51 </v>
  <v type="int" >       49 </v>
  <v type="int" >       73 </v>
  <v type="int" >       27 </v>
  <v type="int" >       39 </v>
  <v type="int" >       37 </v>
  <v type="int" >       25 </v>
  <v type="int" >       85 </v>
  <v type="int" >       88 </v>
  <v type="int" >      117 </v>
  <v type="int" >      115 </v>
  <v type="int" >      102 </v>
  <v type="int" >      100 </v>
  <v type="int" >       79 </v>
  <v type="int" >       13 </v>
  <v type="int" >       16 </v>
  <v type="int" >        2 </v>
  <v type="int" >        3 </v>
  <v type="int" >       63 </v>
  <v type="int" >       61 </v>
  <v type="int" >       19 </v>
  <v type="int" >       22 </v>
  <v type="int" >       66 </v>
  <v type="int" >       64 </v>
  <v type="int" >      111 </v>
  <v type="int" >      109 </v>
  <v type="int" >       69 </v>
  <v type="int" >       67 </v>
  <v type="int" >       30 </v>
  <v type="int" >       28 </v>
  <v type="int" >       72 </v>
  <v type="int" >       70 </v>
  <v type="int" >       99 </v>
  <v type="int" >       97 </v>
  <v type="int" >       75 </v>
  <v type="int" >       74 </v>
  <v type="int" >       45 </v>
  <v type="int" >       43 </v>
  <v type="int" >       87 </v>
  <v type="int" >       86 </v>
  <v type="int" >       90 </v>
  <v type="int" >       89 </v>
  <v type="int" >       81 </v>
  <v type="int" >       80 </v>
  <v type="int" >      108 </v>
  <v type="int" >      106 </v>
  <v type="int" >       42 </v>
  <v type="int" >       40 </v>
  <v type="int" >      120 </v>
  <v type="int" >      118 </v>
  <v type="int" >       33 </v>
  <v type="int" >       31 </v>
  <v type="int" >       17 </v>
  <v type="int" >       15 </v>
  <v type="int" >       14 </v>
  <v type="int" >       18 </v>
  <v type="int" >        7 </v>
  <v type="int" >        4 </v>
  <v type="int" >       57 </v>
  <v type="int" >       55 </v>
  <v type="int" >       23 </v>
  <v type="int" >       21 </v>
  <v type="int" >       20 </v>
  <v type="int" >       24 </v>
  <v type="int" >       50 </v>
  <v type="int" >       54 </v>
  <v type="int" >       52 </v>
  <v type="int" >       91 </v>
  <v type="int" >       94 </v>
  <v type="int" >      105 </v>
  <v type="int" >      103 </v>
  <v type="int" >       76 </v>
  <v type="int" >       26 </v>
  <v type="int" >       38 </v>
  <v type="int" >      114 </v>
  <v type="int" >      112 </v>
  <v type="int" >      116 </v>
  <v type="int" >      101 </v>
  <v type="int" >       82 </v>
  <v type="int" >       48 </v>
  <v type="int" >       46 </v>
  <v type="int" >       36 </v>
  <v type="int" >       34 </v>
  <v type="int" >        8 </v>
  <v type="int" >        9 </v>
  <v type="int" >        5 </v>
  <v type="int" >        6 </v>
  <v type="int" >       62 </v>
  <v type="int" >       65 </v>
  <v type="int" >      110 </v>
  <v type="int" >       68 </v>
  <v type="int" >       93 </v>
  <v type="int" >       92 </v>
  <v type="int" >       29 </v>
  <v type="int" >       71 </v>
  <v type="int" >       98 </v>
  <v type="int" >       96 </v>
  <v type="int" >       95 </v>
  <v type="int" >       78 </v>
  <v type="int" >       77 </v>
  <v type="int" >       44 </v>
  <v type="int" >       84 </v>
  <v type="int" >       83 </v>
  <v type="int" >      107 </v>
  <v type="int" >       41 </v>
  <v type="int" >      119 </v>
  <v type="int" >       32 </v>
  <v type="int" >       10 </v>
  <v type="int" >       56 </v>
  <v type="int" >       60 </v>
  <v type="int" >       58 </v>
  <v type="int" >       53 </v>
  <v type="int" >      104 </v>
  <v type="int" >      113 </v>
  <v type="int" >       47 </v>
  <v type="int" >       35 </v>
  <v type="int" >       11 </v>
  <v type="int" >       12 </v>
  <v type="int" >       59 </v>
 </varray>
 <kpoints>
  <generation param="Gamma">
   <v type="int" name="divisions">       3        3        3 </v>
   <v name="usershift">      0.00000000       0.00000000       0.00000000 </v>
   <v name="genvec1">      0.33333333       0.00000000       0.00000000 </v>
   <v name="genvec2">     -0.00000000       0.33333333       0.00000000 </v>
   <v name="genvec3">      0.00000000       0.00000000       0.33333333 </v>
   <v name="shift">      0.00000000       0.00000000       0.00000000 </v>
  </generation>
  <varray name="kpointlist" >
   <v>       0.00000000       0.00000000       0.00000000 </v>
   <v>       0.33333333       0.00000000       0.00000000 </v>
   <v>       0.00000000       0.33333333       0.00000000 </v>
   <v>       0.33333333       0.33333333       0.00000000 </v>
   <v>      -0.33333333       0.33333333       0.00000000 </v>
   <v>       0.00000000       0.00000000       0.33333333 </v>
   <v>       0.33333333       0.00000000       0.33333333 </v>
   <v>      -0.33333333       0.00000000       0.33333333 </v>
   <v>       0.00000000       0.33333333       0.33333333 </v>
   <v>       0.33333333       0.33333333       0.33333333 </v>
   <v>      -0.33333333       0.33333333       0.33333333 </v>
   <v>      -0.00000000      -0.33333333       0.33333333 </v>
   <v>       0.33333333      -0.33333333       0.33333333 </v>
   <v>      -0.33333333      -0.33333333       0.33333333 </v>
  </varray>
  <varray name="weights" >
   <v>       0.03703704 </v>
   <v>       0.07407407 </v>
   <v>       0.07407407 </v>
   <v>       0.07407407 </v>
   <v>       0.07407407 </v>
   <v>       0.07407407 </v>
   <v>       0.07407407 </v>
   <v>       0.07407407 </v>
   <v>       0.07407407 </v>
   <v>       0.07407407 </v>
   <v>       0.07407407 </v>
   <v>       0.07407407 </v>
   <v>       0.07407407 </v>
   <v>       0.07407407 </v>
  </varray>
 </kpoints>
 <parameters>
  <separator name="general" >
   <i type="string" name="SYSTEM">unknown system</i>
   <i type="logical" name="LCOMPAT"> F  </i>
  </separator>
  <separator name="electronic" >
   <i type="string" name="PREC">accura</i>
   <i name="ENMAX">    650.00000000</i>
   <i name="ENAUG">    628.94500000</i>
   <i name="EDIFF">      0.00000100</i>
   <i type="int" name="IALGO">    38</i>
   <i type="int" name="IWAVPR">    10</i>
   <i type="int" name="NBANDS">   552</i>
   <i name="NELECT">    768.00000000</i>
   <i type="int" name="TURBO">     0</i>
   <i type="int" name="IRESTART">     0</i>
   <i type="int" name="NREBOOT">     0</i>
   <i type="int" name="NMIN">     0</i>
   <i name="EREF">      0.00000000</i>
   <separator name="electronic smearing" >
    <i type="int" name="ISMEAR">     0</i>
    <i name="SIGMA">      0.05000000</i>
    <i name="KSPACING">      0.50000000</i>
    <i type="logical" name="KGAMMA"> T  </i>
   </separator>
   <separator name="electronic projectors" >
    <i type="logical" name="LREAL"> F  </i>
    <v name="ROPT">      0.00000000      0.00000000      0.00000000      0.00000000</v>
    <i type="int" name="LMAXPAW">  -100</i>
    <i type="int" name="LMAXMIX">     4</i>
    <i type="logical" name="NLSPLINE"> F  </i>
   </separator>
   <separator name="electronic startup" >
    <i type="int" name="ISTART">     0</i>
    <i type="int" name="ICHARG">     1</i>
    <i type="int" name="INIWAV">     1</i>
   </separator>
   <separator name="electronic spin" >
    <i type="int" name="ISPIN">     2</i>
    <i type="logical" name="LNONCOLLINEAR"> F  </i>
    <v name="MAGMOM">      0.60000000      0.60000000      0.60000000      0.60000000      0.60000000      0.60000000      0.60000000      0.60000000      0.60000000      0.60000000      0.60000000      0.60000000      0.60000000      0.60000000      0.60000000      0.60000000      0.60000000      0.60000000      0.60000000      0.60000000
      0.60000000      0.60000000      0.60000000      0.60000000      0.60000000      0.60000000      0.60000000      0.60000000      0.60000000      0.60000000      0.60000000      0.60000000      0.60000000      0.60000000      0.60000000      0.60000000      0.60000000      0.60000000      0.60000000      0.60000000
      0.60000000      0.60000000      0.60000000      0.60000000      0.60000000      0.60000000      0.60000000      0.60000000      0.60000000      0.60000000      0.60000000      0.60000000      0.60000000      0.60000000      0.60000000      0.60000000      0.60000000      0.60000000      0.60000000      0.60000000
      0.60000000      0.60000000      0.60000000      0.60000000      0.60000000      0.60000000      0.60000000      0.60000000      0.60000000      0.60000000      0.60000000      0.60000000      0.60000000      0.60000000      0.60000000      0.60000000      0.60000000      0.60000000      0.60000000      0.60000000
      0.60000000      0.60000000      0.60000000      0.60000000      0.60000000      0.60000000      0.60000000      0.60000000      0.60000000      0.60000000      0.60000000      0.60000000      0.60000000      0.60000000      0.60000000      0.60000000      5.00000000      5.00000000      5.00000000      5.00000000
      5.00000000      5.00000000      5.00000000      5.00000000      5.00000000      5.00000000      5.00000000      5.00000000      5.00000000      5.00000000      5.00000000      5.00000000      5.00000000      5.00000000      5.00000000      5.00000000      5.00000000      5.00000000      5.00000000      5.00000000
</v>
    <i name="NUPDOWN">     -1.00000000</i>
    <i type="logical" name="LSORBIT"> F  </i>
    <v name="SAXIS">      0.00000000      0.00000000      1.00000000</v>
    <i type="logical" name="LSPIRAL"> F  </i>
    <v name="QSPIRAL">      0.00000000      0.00000000      0.00000000</v>
    <i type="logical" name="LZEROZ"> F  </i>
   </separator>
   <separator name="electronic exchange-correlation" >
    <i type="logical" name="LASPH"> T  </i>
    <i type="logical" name="LMETAGGA"> F  </i>
   </separator>
   <separator name="electronic convergence" >
    <i type="int" name="NELM">   200</i>
    <i type="int" name="NELMDL">     0</i>
    <i type="int" name="NELMIN">     8</i>
    <i name="ENINI">    650.00000000</i>
    <separator name="electronic convergence detail" >
     <i type="logical" name="LDIAG"> T  </i>
     <i type="logical" name="LSUBROT"> F  </i>
     <i name="WEIMIN">      0.00000000</i>
     <i name="EBREAK">      0.00000000</i>
     <i name="DEPER">      0.30000000</i>
     <i type="int" name="NRMM">     4</i>
     <i name="TIME">      0.40000000</i>
    </separator>
   </separator>
   <separator name="electronic mixer" >
    <i name="AMIX">      0.40000000</i>
    <i name="BMIX">      1.00000000</i>
    <i name="AMIN">      0.10000000</i>
    <i name="AMIX_MAG">      1.60000000</i>
    <i name="BMIX_MAG">      1.00000000</i>
    <separator name="electronic mixer details" >
     <i type="int" name="IMIX">     4</i>
     <i type="logical" name="MIXFIRST"> F  </i>
     <i type="int" name="MAXMIX">   -45</i>
     <i name="WC">    100.00000000</i>
     <i type="int" name="INIMIX">     1</i>
     <i type="int" name="MIXPRE">     1</i>
     <i type="int" name="MREMOVE">     5</i>
    </separator>
   </separator>
   <separator name="electronic dipolcorrection" >
    <i type="logical" name="LDIPOL"> F  </i>
    <i type="logical" name="LMONO"> F  </i>
    <i type="int" name="IDIPOL">     0</i>
    <i name="EPSILON">      1.00000000</i>
    <v name="DIPOL">   -100.00000000   -100.00000000   -100.00000000</v>
    <i name="EFIELD">      0.00000000</i>
   </separator>
  </separator>
  <separator name="grids" >
   <i type="int" name="NGX">    98</i>
   <i type="int" name="NGY">    96</i>
   <i type="int" name="NGZ">    96</i>
   <i type="int" name="NGXF">   196</i>
   <i type="int" name="NGYF">   192</i>
   <i type="int" name="NGZF">   192</i>
   <i type="logical" name="ADDGRID"> T  </i>
  </separator>
  <separator name="ionic" >
   <i type="int" name="NSW">     0</i>
   <i type="int" name="IBRION">    -1</i>
   <i type="int" name="MDALGO">     0</i>
   <i type="int" name="ISIF">     3</i>
   <i name="PSTRESS">      0.00000000</i>
   <i name="EDIFFG">      0.00001000</i>
   <i type="int" name="NFREE">     0</i>
   <i name="POTIM">      0.50000000</i>
   <i name="SMASS">     -3.00000000</i>
   <i name="SCALEE">      1.00000000</i>
  </separator>
  <separator name="ionic md" >
   <i name="TEBEG">      0.00010000</i>
   <i name="TEEND">      0.00010000</i>
   <i type="int" name="NBLOCK">     1</i>
   <i type="int" name="KBLOCK">     1</i>
   <i type="int" name="NPACO">   256</i>
   <i name="APACO">     16.00000000</i>
  </separator>
  <separator name="symmetry" >
   <i type="int" name="ISYM">     0</i>
   <i name="SYMPREC">      0.00001000</i>
  </separator>
  <separator name="dos" >
   <i type="int" name="LORBIT">     0</i>
   <v name="RWIGS">     -1.00000000     -1.00000000     -1.00000000     -1.00000000</v>
   <i type="int" name="NEDOS">   301</i>
   <i name="EMIN">     10.00000000</i>
   <i name="EMAX">    -10.00000000</i>
   <i name="EFERMI">      0.00000000</i>
  </separator>
  <separator name="writing" >
   <i type="int" name="NWRITE">     1</i>
   <i type="logical" name="LWAVE"> F  </i>
   <i type="logical" name="LDOWNSAMPLE"> F  </i>
   <i type="logical" name="LCHARG"> T  </i>
   <i type="logical" name="LPARD"> F  </i>
   <i type="logical" name="LVTOT"> F  </i>
   <i type="logical" name="LVHAR"> F  </i>
   <i type="logical" name="LELF"> F  </i>
   <i type="logical" name="LOPTICS"> F  </i>
   <v name="STM">      0.00000000      0.00000000      0.00000000      0.00000000      0.00000000      0.00000000      0.00000000</v>
  </separator>
  <separator name="performance" >
   <i type="int" name="NPAR">     4</i>
   <i type="int" name="NSIM">     4</i>
   <i type="int" name="NBLK">    -1</i>
   <i type="logical" name="LPLANE"> T  </i>
   <i type="logical" name="LSCALAPACK"> T  </i>
   <i type="logical" name="LSCAAWARE"> F  </i>
   <i type="logical" name="LSCALU"> F  </i>
   <i type="logical" name="LASYNC"> F  </i>
   <i type="logical" name="LORBITALREAL"> F  </i>
  </separator>
  <separator name="miscellaneous" >
   <i type="int" name="IDIOT">     3</i>
   <i type="int" name="ISPECIAL">     0</i>
   <i type="logical" name="LMUSIC"> F  </i>
   <v name="POMASS">      7.01000000     16.00000000     32.06600000     55.84700000</v>
   <v name="DARWINR">      0.00000000      0.00000000      0.00000000      0.00000000</v>
   <v name="DARWINV">      1.00000000      1.00000000      1.00000000      1.00000000</v>
   <i type="logical" name="LCORR"> T  </i>
  </separator>
  <i type="logical" name="GGA_COMPAT"> T  </i>
  <i type="logical" name="LBERRY"> F  </i>
  <i type="int" name="ICORELEVEL">     0</i>
  <i type="logical" name="LDAU"> T  </i>
  <v type="int" name="LDAUTYPE">     2</v>
  <v type="int" name="LDAUL">    -1</v>
  <v name="LDAUU">      0.00000000</v>
  <v name="LDAUJ">      0.00000000</v>
  <i type="int" name="LDAUPRINT">     0</i>
  <i type="int" name="I_CONSTRAINED_M">     0</i>
  <separator name="electronic exchange-correlation" >
   <i type="string" name="GGA">PE</i>
   <i type="int" name="VOSKOWN">     0</i>
   <i type="logical" name="LHFCALC"> F  </i>
   <i type="string" name="PRECFOCK"></i>
   <i type="logical" name="LSYMGRAD"> F  </i>
   <i type="logical" name="LHFONE"> F  </i>
   <i type="logical" name="LRHFCALC"> F  </i>
   <i type="logical" name="LTHOMAS"> F  </i>
   <i type="logical" name="LMODELHF"> F  </i>
   <i name="ENCUT4O">     -1.00000000</i>
   <i type="int" name="EXXOEP">     0</i>
   <i type="int" name="FOURORBIT">     0</i>
   <i name="AEXX">      0.00000000</i>
   <i name="HFALPHA">      0.00000000</i>
   <i name="MCALPHA">      0.00000000</i>
   <i name="ALDAX">      1.00000000</i>
   <i name="AGGAX">      1.00000000</i>
   <i name="ALDAC">      1.00000000</i>
   <i name="AGGAC">      1.00000000</i>
   <i type="int" name="NKREDX">     1</i>
   <i type="int" name="NKREDY">     1</i>
   <i type="int" name="NKREDZ">     1</i>
   <i type="logical" name="SHIFTRED"> F  </i>
   <i type="logical" name="ODDONLY"> F  </i>
   <i type="logical" name="EVENONLY"> F  </i>
   <i type="int" name="LMAXFOCK">     0</i>
   <i type="int" name="NMAXFOCKAE">     0</i>
   <i type="logical" name="LFOCKAEDFT"> F  </i>
   <i name="HFSCREEN">      0.00000000</i>
   <i name="HFSCREENC">      0.00000000</i>
   <i type="int" name="NBANDSGWLOW">     0</i>
  </separator>
  <separator name="vdW DFT" >
   <i type="logical" name="LUSE_VDW"> F  </i>
   <i name="Zab_VDW">     -0.84910000</i>
   <i name="PARAM1">      0.12340000</i>
   <i name="PARAM2">      1.00000000</i>
   <i name="PARAM3">      0.00000000</i>
  </separator>
  <separator name="model GW" >
   <i type="int" name="MODEL_GW">     0</i>
   <i name="MODEL_EPS0">      7.36999089</i>
   <i name="MODEL_ALPHA">      1.00000000</i>
  </separator>
  <separator name="linear response parameters" >
   <i type="logical" name="LEPSILON"> F  </i>
   <i type="logical" name="LRPA"> F  </i>
   <i type="logical" name="LNABLA"> F  </i>
   <i type="logical" name="LVEL"> F  </i>
   <i type="int" name="KINTER">     0</i>
   <i name="CSHIFT">      0.10000000</i>
   <i name="OMEGAMAX">     -1.00000000</i>
   <i name="DEG_THRESHOLD">      0.00200000</i>
   <i name="RTIME">     -0.10000000</i>
   <i name="WPLASMAI">      0.00000000</i>
   <v name="DFIELD">      0.00000000      0.00000000      0.00000000</v>
   <v name="WPLASMA">      0.00000000      0.00000000      0.00000000      0.00000000      0.00000000      0.00000000      0.00000000      0.00000000      0.00000000</v>
  </separator>
  <separator name="orbital magnetization" >
   <i type="logical" name="NUCIND"> F  </i>
   <v name="MAGPOS">      0.00000000      0.00000000      0.00000000</v>
   <i type="logical" name="LNICSALL"> T  </i>
   <i type="logical" name="ORBITALMAG"> F  </i>
   <i type="logical" name="LMAGBLOCH"> F  </i>
   <i type="logical" name="LCHIMAG"> F  </i>
   <i type="logical" name="LGAUGE"> T  </i>
   <i type="int" name="MAGATOM">     0</i>
   <v name="MAGDIPOL">      0.00000000      0.00000000      0.00000000</v>
   <v name="AVECCONST">      0.00000000      0.00000000      0.00000000</v>
  </separator>
  <separator name="response functions" >
   <i type="logical" name="LADDER"> F  </i>
   <i type="logical" name="LRPAFORCE"> F  </i>
   <i type="logical" name="LFXC"> F  </i>
   <i type="logical" name="LHARTREE"> T  </i>
   <i type="int" name="IBSE">     0</i>
   <v type="int" name="KPOINT">    -1     0     0     0</v>
   <i type="logical" name="LTCTE"> F  </i>
   <i type="logical" name="LTETE"> F  </i>
   <i type="logical" name="LTRIPLET"> F  </i>
   <i type="logical" name="LFXCEPS"> F  </i>
   <i type="logical" name="LFXHEG"> F  </i>
   <i type="int" name="NATURALO">     2</i>
   <i type="logical" name="L2ORDER"> F  </i>
   <i type="logical" name="LMP2LT"> F  </i>
   <i type="logical" name="LUSEW"> F  </i>
   <i name="ENCUTGW">     -2.00000000</i>
   <i name="ENCUTGWSOFT">     -2.00000000</i>
   <i name="ENCUTLF">     -1.00000000</i>
   <i type="int" name="LMAXMP2">    -1</i>
   <i name="SCISSOR">      0.00000000</i>
   <i type="int" name="NOMEGA">     0</i>
   <i type="int" name="NOMEGAR">     0</i>
   <i type="int" name="NBANDSGW">    -1</i>
   <i type="int" name="NBANDSO">    -1</i>
   <i type="int" name="NBANDSV">    -1</i>
   <i type="int" name="NELM">   200</i>
   <i type="int" name="NELMHF">     1</i>
   <i type="int" name="DIM">     3</i>
   <i type="int" name="ANTIRES">     0</i>
   <i name="OMEGAMAX">    -30.00000000</i>
   <i name="OMEGAMIN">    -30.00000000</i>
   <i name="OMEGATL">   -200.00000000</i>
   <i type="int" name="OMEGAGRID">   140</i>
   <i name="CSHIFT">     -0.10000000</i>
   <i type="logical" name="SELFENERGY"> F  </i>
   <i type="logical" name="LSPECTRAL"> F  </i>
   <i type="logical" name="LSPECTRALGW"> F  </i>
   <i type="logical" name="LSINGLES"> F  </i>
   <i type="logical" name="LFERMIGW"> F  </i>
   <i type="logical" name="ODDONLYGW"> F  </i>
   <i type="logical" name="EVENONLYGW"> F  </i>
   <i type="int" name="NKREDLFX">     1</i>
   <i type="int" name="NKREDLFY">     1</i>
   <i type="int" name="NKREDLFZ">     1</i>
   <i type="int" name="MAXMEM">  2800</i>
   <i type="int" name="TELESCOPE">     0</i>
   <i type="int" name="TAUPAR">     1</i>
   <i type="int" name="OMEGAPAR">    -1</i>
   <i name="LAMBDA">      1.00000000</i>
  </separator>
  <separator name="External order field" >
   <i name="OFIELD_KAPPA">      0.00000000</i>
   <v name="OFIELD_K">      0.00000000      0.00000000      0.00000000</v>
   <i name="OFIELD_Q6_NEAR">      0.00000000</i>
   <i name="OFIELD_Q6_FAR">      0.00000000</i>
   <i name="OFIELD_A">      0.00000000</i>
  </separator>
 </parameters>
 <atominfo>
  <atoms>     120 </atoms>
  <types>       4 </types>
  <array name="atoms" >
   <dimension dim="1">ion</dimension>
   <field type="string">element</field>
   <field type="int">atomtype</field>
   <set>
    <rc><c>Li</c><c>   1</c></rc>
    <rc><c>Li</c><c>   1</c></rc>
    <rc><c>Li</c><c>   1</c></rc>
    <rc><c>Li</c><c>   1</c></rc>
    <rc><c>Li</c><c>   1</c></rc>
    <rc><c>Li</c><c>   1</c></rc>
    <rc><c>Li</c><c>   1</c></rc>
    <rc><c>Li</c><c>   1</c></rc>
    <rc><c>Li</c><c>   1</c></rc>
    <rc><c>Li</c><c>   1</c></rc>
    <rc><c>Li</c><c>   1</c></rc>
    <rc><c>Li</c><c>   1</c></rc>
    <rc><c>Li</c><c>   1</c></rc>
    <rc><c>Li</c><c>   1</c></rc>
    <rc><c>Li</c><c>   1</c></rc>
    <rc><c>Li</c><c>   1</c></rc>
    <rc><c>Li</c><c>   1</c></rc>
    <rc><c>Li</c><c>   1</c></rc>
    <rc><c>Li</c><c>   1</c></rc>
    <rc><c>Li</c><c>   1</c></rc>
    <rc><c>Li</c><c>   1</c></rc>
    <rc><c>Li</c><c>   1</c></rc>
    <rc><c>Li</c><c>   1</c></rc>
    <rc><c>Li</c><c>   1</c></rc>
    <rc><c>Li</c><c>   1</c></rc>
    <rc><c>Li</c><c>   1</c></rc>
    <rc><c>Li</c><c>   1</c></rc>
    <rc><c>Li</c><c>   1</c></rc>
    <rc><c>Li</c><c>   1</c></rc>
    <rc><c>Li</c><c>   1</c></rc>
    <rc><c>Li</c><c>   1</c></rc>
    <rc><c>Li</c><c>   1</c></rc>
    <rc><c>Li</c><c>   1</c></rc>
    <rc><c>Li</c><c>   1</c></rc>
    <rc><c>Li</c><c>   1</c></rc>
    <rc><c>Li</c><c>   1</c></rc>
    <rc><c>Li</c><c>   1</c></rc>
    <rc><c>Li</c><c>   1</c></rc>
    <rc><c>Li</c><c>   1</c></rc>
    <rc><c>Li</c><c>   1</c></rc>
    <rc><c>Li</c><c>   1</c></rc>
    <rc><c>Li</c><c>   1</c></rc>
    <rc><c>Li</c><c>   1</c></rc>
    <rc><c>Li</c><c>   1</c></rc>
    <rc><c>Li</c><c>   1</c></rc>
    <rc><c>Li</c><c>   1</c></rc>
    <rc><c>Li</c><c>   1</c></rc>
    <rc><c>Li</c><c>   1</c></rc>
    <rc><c>O </c><c>   2</c></rc>
    <rc><c>O </c><c>   2</c></rc>
    <rc><c>O </c><c>   2</c></rc>
    <rc><c>O </c><c>   2</c></rc>
    <rc><c>O </c><c>   2</c></rc>
    <rc><c>O </c><c>   2</c></rc>
    <rc><c>O </c><c>   2</c></rc>
    <rc><c>O </c><c>   2</c></rc>
    <rc><c>O </c><c>   2</c></rc>
    <rc><c>O </c><c>   2</c></rc>
    <rc><c>O </c><c>   2</c></rc>
    <rc><c>O </c><c>   2</c></rc>
    <rc><c>O </c><c>   2</c></rc>
    <rc><c>O </c><c>   2</c></rc>
    <rc><c>O </c><c>   2</c></rc>
    <rc><c>O </c><c>   2</c></rc>
    <rc><c>O </c><c>   2</c></rc>
    <rc><c>O </c><c>   2</c></rc>
    <rc><c>O </c><c>   2</c></rc>
    <rc><c>O </c><c>   2</c></rc>
    <rc><c>O </c><c>   2</c></rc>
    <rc><c>O </c><c>   2</c></rc>
    <rc><c>O </c><c>   2</c></rc>
    <rc><c>O </c><c>   2</c></rc>
    <rc><c>S </c><c>   3</c></rc>
    <rc><c>S </c><c>   3</c></rc>
    <rc><c>S </c><c>   3</c></rc>
    <rc><c>S </c><c>   3</c></rc>
    <rc><c>S </c><c>   3</c></rc>
    <rc><c>S </c><c>   3</c></rc>
    <rc><c>S </c><c>   3</c></rc>
    <rc><c>S </c><c>   3</c></rc>
    <rc><c>S </c><c>   3</c></rc>
    <rc><c>S </c><c>   3</c></rc>
    <rc><c>S </c><c>   3</c></rc>
    <rc><c>S </c><c>   3</c></rc>
    <rc><c>S </c><c>   3</c></rc>
    <rc><c>S </c><c>   3</c></rc>
    <rc><c>S </c><c>   3</c></rc>
    <rc><c>S </c><c>   3</c></rc>
    <rc><c>S </c><c>   3</c></rc>
    <rc><c>S </c><c>   3</c></rc>
    <rc><c>S </c><c>   3</c></rc>
    <rc><c>S </c><c>   3</c></rc>
    <rc><c>S </c><c>   3</c></rc>
    <rc><c>S </c><c>   3</c></rc>
    <rc><c>S </c><c>   3</c></rc>
    <rc><c>S </c><c>   3</c></rc>
    <rc><c>Fe</c><c>   4</c></rc>
    <rc><c>Fe</c><c>   4</c></rc>
    <rc><c>Fe</c><c>   4</c></rc>
    <rc><c>Fe</c><c>   4</c></rc>
    <rc><c>Fe</c><c>   4</c></rc>
    <rc><c>Fe</c><c>   4</c></rc>
    <rc><c>Fe</c><c>   4</c></rc>
    <rc><c>Fe</c><c>   4</c></rc>
    <rc><c>Fe</c><c>   4</c></rc>
    <rc><c>Fe</c><c>   4</c></rc>
    <rc><c>Fe</c><c>   4</c></rc>
    <rc><c>Fe</c><c>   4</c></rc>
    <rc><c>Fe</c><c>   4</c></rc>
    <rc><c>Fe</c><c>   4</c></rc>
    <rc><c>Fe</c><c>   4</c></rc>
    <rc><c>Fe</c><c>   4</c></rc>
    <rc><c>Fe</c><c>   4</c></rc>
    <rc><c>Fe</c><c>   4</c></rc>
    <rc><c>Fe</c><c>   4</c></rc>
    <rc><c>Fe</c><c>   4</c></rc>
    <rc><c>Fe</c><c>   4</c></rc>
    <rc><c>Fe</c><c>   4</c></rc>
    <rc><c>Fe</c><c>   4</c></rc>
    <rc><c>Fe</c><c>   4</c></rc>
   </set>
  </array>
  <array name="atomtypes" >
   <dimension dim="1">type</dimension>
   <field type="int">atomspertype</field>
   <field type="string">element</field>
   <field>mass</field>
   <field>valence</field>
   <field type="string">pseudopotential</field>
   <set>
    <rc><c>  48</c><c>Li</c><c>      7.01000000</c><c>      3.00000000</c><c>  PAW_PBE Li_sv 10Sep2004               </c></rc>
    <rc><c>  24</c><c>O </c><c>     16.00000000</c><c>      6.00000000</c><c>  PAW_PBE O 08Apr2002                   </c></rc>
    <rc><c>  24</c><c>S </c><c>     32.06600000</c><c>      6.00000000</c><c>  PAW_PBE S 06Sep2000                   </c></rc>
    <rc><c>  24</c><c>Fe</c><c>     55.84700000</c><c>     14.00000000</c><c>  PAW_PBE Fe_pv 02Aug2007               </c></rc>
   </set>
  </array>
 </atominfo>
 <structure name="initialpos" >
  <crystal>
   <varray name="basis" >
    <v>      11.73572724      -0.05744286       0.00000000 </v>
    <v>       0.05480788      11.21833490       0.00000000 </v>
    <v>       0.00000000       0.00000000      11.19562010 </v>
   </varray>
   <i name="volume">   1473.99817718 </i>
   <varray name="rec_basis" >
    <v>       0.08520785      -0.00041629       0.00000000 </v>
    <v>       0.00043630       0.08913766       0.00000000 </v>
    <v>       0.00000000       0.00000000       0.08932064 </v>
   </varray>
  </crystal>
  <varray name="positions" >
   <v>       0.03541706       0.36277547       0.35648149 </v>
   <v>       0.36875039       0.36277547       0.35648149 </v>
   <v>       0.70208372       0.36277547       0.35648149 </v>
   <v>       0.03541706       0.86277547       0.35648149 </v>
   <v>       0.36875039       0.86277547       0.35648149 </v>
   <v>       0.70208372       0.86277547       0.35648149 </v>
   <v>       0.03541706       0.36277547       0.85648149 </v>
   <v>       0.36875039       0.36277547       0.85648149 </v>
   <v>       0.70208372       0.36277547       0.85648149 </v>
   <v>       0.03541706       0.86277547       0.85648149 </v>
   <v>       0.36875039       0.86277547       0.85648149 </v>
   <v>       0.70208372       0.86277547       0.85648149 </v>
   <v>       0.03541706       0.11277547       0.14351851 </v>
   <v>       0.36875039       0.11277547       0.14351851 </v>
   <v>       0.70208372       0.11277547       0.14351851 </v>
   <v>       0.03541706       0.61277547       0.14351851 </v>
   <v>       0.36875039       0.61277547       0.14351851 </v>
   <v>       0.70208372       0.61277547       0.14351851 </v>
   <v>       0.03541706       0.11277547       0.64351851 </v>
   <v>       0.36875039       0.11277547       0.64351851 </v>
   <v>       0.70208372       0.11277547       0.64351851 </v>
   <v>       0.03541706       0.61277547       0.64351851 </v>
   <v>       0.36875039       0.61277547       0.64351851 </v>
   <v>       0.70208372       0.61277547       0.64351851 </v>
   <v>       0.20294667       0.21898060       0.27246215 </v>
   <v>       0.53542792       0.21898060       0.27246215 </v>
   <v>       0.86876125       0.21898060       0.27246215 </v>
   <v>       0.20209458       0.71898060       0.27246215 </v>
   <v>       0.53542792       0.71898060       0.27246215 </v>
   <v>       0.86876125       0.71898060       0.27246215 </v>
   <v>       0.20209458       0.21898060       0.77246215 </v>
   <v>       0.53542792       0.21898060       0.77246215 </v>
   <v>       0.86876125       0.21898060       0.77246215 </v>
   <v>       0.20209458       0.71898060       0.77246215 </v>
   <v>       0.53542792       0.71898060       0.77246215 </v>
   <v>       0.86876125       0.71898060       0.77246215 </v>
   <v>       0.20209458       0.46898060       0.22753785 </v>
   <v>       0.53542792       0.46898060       0.22753785 </v>
   <v>       0.86876125       0.46898060       0.22753785 </v>
   <v>       0.20209458       0.96898060       0.22753785 </v>
   <v>       0.53542792       0.96898060       0.22753785 </v>
   <v>       0.86876125       0.96898060       0.22753785 </v>
   <v>       0.20209458       0.46898060       0.72753785 </v>
   <v>       0.53542792       0.46898060       0.72753785 </v>
   <v>       0.86876125       0.46898060       0.72753785 </v>
   <v>       0.20209458       0.96898060       0.72753785 </v>
   <v>       0.53542792       0.96898060       0.72753785 </v>
   <v>       0.86876125       0.96898060       0.72753785 </v>
   <v>       0.20209064       0.36769237       0.37376509 </v>
   <v>       0.53542398       0.36769237       0.37376509 </v>
   <v>       0.86875731       0.36769237       0.37376509 </v>
   <v>       0.20209064       0.86769237       0.37376509 </v>
   <v>       0.53542398       0.86769237       0.37376509 </v>
   <v>       0.86875731       0.86769237       0.37376509 </v>
   <v>       0.20209064       0.36769237       0.87376509 </v>
   <v>       0.53542398       0.36769237       0.87376509 </v>
   <v>       0.86875731       0.36769237       0.87376509 </v>
   <v>       0.20209064       0.86769237       0.87376509 </v>
   <v>       0.53542398       0.86769237       0.87376509 </v>
   <v>       0.86875731       0.86769237       0.87376509 </v>
   <v>       0.20209064       0.11769237       0.12623491 </v>
   <v>       0.53542398       0.11769237       0.12623491 </v>
   <v>       0.86875731       0.11769237       0.12623491 </v>
   <v>       0.20209064       0.61769237       0.12623491 </v>
   <v>       0.53542398       0.61769237       0.12623491 </v>
   <v>       0.86875731       0.61769237       0.12623491 </v>
   <v>       0.20209064       0.11769237       0.62623491 </v>
   <v>       0.53542398       0.11769237       0.62623491 </v>
   <v>       0.86875731       0.11769237       0.62623491 </v>
   <v>       0.20209064       0.61769237       0.62623491 </v>
   <v>       0.53542398       0.61769237       0.62623491 </v>
   <v>       0.86875731       0.61769237       0.62623491 </v>
   <v>       0.03542751       0.37011947       0.12029448 </v>
   <v>       0.36876084       0.37011947       0.12029448 </v>
   <v>       0.70209418       0.37011947       0.12029448 </v>
   <v>       0.03542751       0.87011947       0.12029448 </v>
   <v>       0.36876084       0.87011947       0.12029448 </v>
   <v>       0.70209418       0.87011947       0.12029448 </v>
   <v>       0.03542751       0.37011947       0.62029448 </v>
   <v>       0.36876084       0.37011947       0.62029448 </v>
   <v>       0.70209418       0.37011947       0.62029448 </v>
   <v>       0.03542751       0.87011947       0.62029448 </v>
   <v>       0.36876084       0.87011947       0.62029448 </v>
   <v>       0.70209418       0.87011947       0.62029448 </v>
   <v>       0.03542751       0.12011947       0.37970552 </v>
   <v>       0.36876084       0.12011947       0.37970552 </v>
   <v>       0.70209418       0.12011947       0.37970552 </v>
   <v>       0.03542751       0.62011947       0.37970552 </v>
   <v>       0.36876084       0.62011947       0.37970552 </v>
   <v>       0.70209418       0.62011947       0.37970552 </v>
   <v>       0.03542751       0.12011947       0.87970552 </v>
   <v>       0.36876084       0.12011947       0.87970552 </v>
   <v>       0.70209418       0.12011947       0.87970552 </v>
   <v>       0.03542751       0.62011947       0.87970552 </v>
   <v>       0.36876084       0.62011947       0.87970552 </v>
   <v>       0.70209418       0.62011947       0.87970552 </v>
   <v>       0.20209387       0.01225309       0.48003463 </v>
   <v>       0.53542720       0.01225309       0.48003463 </v>
   <v>       0.86876054       0.01225309       0.48003463 </v>
   <v>       0.20209387       0.51225309       0.48003463 </v>
   <v>       0.53542720       0.51225309       0.48003463 </v>
   <v>       0.86876054       0.51225309       0.48003463 </v>
   <v>       0.20209387       0.01225309       0.98003463 </v>
   <v>       0.53542720       0.01225309       0.98003463 </v>
   <v>       0.86876054       0.01225309       0.98003463 </v>
   <v>       0.20209387       0.51225309       0.98003463 </v>
   <v>       0.53542720       0.51225309       0.98003463 </v>
   <v>       0.86876054       0.51225309       0.98003463 </v>
   <v>       0.20209387       0.26225309       0.01996537 </v>
   <v>       0.53542720       0.26225309       0.01996537 </v>
   <v>       0.86876054       0.26225309       0.01996537 </v>
   <v>       0.20209387       0.76225309       0.01996537 </v>
   <v>       0.53542720       0.76225309       0.01996537 </v>
   <v>       0.86876054       0.76225309       0.01996537 </v>
   <v>       0.20209387       0.26225309       0.51996537 </v>
   <v>       0.53542720       0.26225309       0.51996537 </v>
   <v>       0.86876054       0.26225309       0.51996537 </v>
   <v>       0.20209387       0.76225309       0.51996537 </v>
   <v>       0.53542720       0.76225309       0.51996537 </v>
   <v>       0.86876054       0.76225309       0.51996537 </v>
  </varray>
 </structure>
 <calculation>
  <scstep>
   <time name="dav">  215.49  219.81</time>
   <time name="total">  217.47  221.80</time>
   <energy>
    <i name="alphaZ">   1915.67052055 </i>
    <i name="ewald"> -48532.25919380 </i>
    <i name="hartreedc"> -28983.30161668 </i>
    <i name="XCdc">   3297.26491296 </i>
    <i name="pawpsdc">  81710.32686745 </i>
    <i name="pawaedc"> -84426.12035439 </i>
    <i name="eentropy">     -0.01831089 </i>
    <i name="bandstr">   -670.15318007 </i>
    <i name="atom">  85731.96378919 </i>
    <i name="e_fr_energy">  10043.37343433 </i>
    <i name="e_wo_entrp">  10043.39174522 </i>
    <i name="e_0_energy">  10043.38258977 </i>
   </energy>
  </scstep>
  <scstep>
   <time name="dav">  206.12  211.35</time>
   <time name="total">  206.13  211.35</time>
   <energy>
    <i name="e_fr_energy">   1037.05552892 </i>
    <i name="e_wo_entrp">   1037.10777034 </i>
    <i name="e_0_energy">   1037.08164963 </i>
   </energy>
  </scstep>
  <scstep>
   <time name="dav">  227.37  232.50</time>
   <time name="total">  227.37  232.50</time>
   <energy>
    <i name="e_fr_energy">   -399.75508007 </i>
    <i name="e_wo_entrp">   -399.75508007 </i>
    <i name="e_0_energy">   -399.75508007 </i>
   </energy>
  </scstep>
  <scstep>
   <time name="dav">  258.17  264.33</time>
   <time name="total">  258.17  264.33</time>
   <energy>
    <i name="e_fr_energy">   -590.31959743 </i>
    <i name="e_wo_entrp">   -590.31959743 </i>
    <i name="e_0_energy">   -590.31959743 </i>
   </energy>
  </scstep>
  <scstep>
   <time name="dav">  325.90  333.06</time>
   <time name="total">  331.40  338.76</time>
   <energy>
    <i name="e_fr_energy">   -615.44525228 </i>
    <i name="e_wo_entrp">   -615.44525228 </i>
    <i name="e_0_energy">   -615.44525228 </i>
   </energy>
  </scstep>
  <scstep>
   <time name="dav">  262.76  267.98</time>
   <time name="total">  270.26  275.67</time>
   <energy>
    <i name="e_fr_energy">   -616.38668959 </i>
    <i name="e_wo_entrp">   -616.38668959 </i>
    <i name="e_0_energy">   -616.38668959 </i>
   </energy>
  </scstep>
  <scstep>
   <time name="dav">  301.30  307.91</time>
   <time name="total">  308.77  315.62</time>
   <energy>
    <i name="e_fr_energy">   -616.43546448 </i>
    <i name="e_wo_entrp">   -616.43546448 </i>
    <i name="e_0_energy">   -616.43546448 </i>
   </energy>
  </scstep>
  <scstep>
   <time name="dav">  288.08  294.37</time>
   <time name="total">  295.51  302.05</time>
   <energy>
    <i name="e_fr_energy">   -616.43566150 </i>
    <i name="e_wo_entrp">   -616.43566150 </i>
    <i name="e_0_energy">   -616.43566150 </i>
   </energy>
  </scstep>
  <scstep>
   <time name="dav">  299.55  306.12</time>
   <time name="total">  307.06  313.80</time>
   <energy>
    <i name="e_fr_energy">   -616.43503771 </i>
    <i name="e_wo_entrp">   -616.43503771 </i>
    <i name="e_0_energy">   -616.43503771 </i>
   </energy>
  </scstep>
  <scstep>
   <time name="dav">  294.26  300.89</time>
   <time name="total">  301.75  308.61</time>
   <energy>
    <i name="e_fr_energy">   -616.43507745 </i>
    <i name="e_wo_entrp">   -616.43507745 </i>
    <i name="e_0_energy">   -616.43507745 </i>
   </energy>
  </scstep>
  <scstep>
   <time name="dav">  241.17  246.52</time>
   <time name="total">  248.64  254.19</time>
   <energy>
    <i name="e_fr_energy">   -616.43458607 </i>
    <i name="e_wo_entrp">   -616.43458607 </i>
    <i name="e_0_energy">   -616.43458607 </i>
   </energy>
  </scstep>
  <scstep>
   <time name="dav">  282.96  288.74</time>
   <time name="total">  290.32  296.38</time>
   <energy>
    <i name="e_fr_energy">   -616.43391567 </i>
    <i name="e_wo_entrp">   -616.43391567 </i>
    <i name="e_0_energy">   -616.43391567 </i>
   </energy>
  </scstep>
  <scstep>
   <time name="dav">  287.45  293.76</time>
   <time name="total">  294.91  301.43</time>
   <energy>
    <i name="e_fr_energy">   -616.43309238 </i>
    <i name="e_wo_entrp">   -616.43309238 </i>
    <i name="e_0_energy">   -616.43309238 </i>
   </energy>
  </scstep>
  <scstep>
   <time name="dav">  240.25  245.62</time>
   <time name="total">  247.75  253.25</time>
   <energy>
    <i name="e_fr_energy">   -616.43293256 </i>
    <i name="e_wo_entrp">   -616.43293256 </i>
    <i name="e_0_energy">   -616.43293256 </i>
   </energy>
  </scstep>
  <scstep>
   <time name="dav">  266.42  271.79</time>
   <time name="total">  273.83  279.38</time>
   <energy>
    <i name="e_fr_energy">   -616.43287198 </i>
    <i name="e_wo_entrp">   -616.43287198 </i>
    <i name="e_0_energy">   -616.43287198 </i>
   </energy>
  </scstep>
  <scstep>
   <time name="dav">  218.14  222.87</time>
   <time name="total">  225.55  230.50</time>
   <energy>
    <i name="e_fr_energy">   -616.43293724 </i>
    <i name="e_wo_entrp">   -616.43293724 </i>
    <i name="e_0_energy">   -616.43293724 </i>
   </energy>
  </scstep>
  <scstep>
   <time name="dav">  219.19  224.03</time>
   <time name="total">  226.64  231.63</time>
   <energy>
    <i name="e_fr_energy">   -616.43305083 </i>
    <i name="e_wo_entrp">   -616.43305083 </i>
    <i name="e_0_energy">   -616.43305083 </i>
   </energy>
  </scstep>
  <scstep>
   <time name="dav">  220.07  225.14</time>
   <time name="total">  227.53  232.77</time>
   <energy>
    <i name="e_fr_energy">   -616.43303180 </i>
    <i name="e_wo_entrp">   -616.43303180 </i>
    <i name="e_0_energy">   -616.43303180 </i>
   </energy>
  </scstep>
  <scstep>
   <time name="dav">  151.35  154.85</time>
   <time name="total">  158.92  162.52</time>
   <energy>
    <i name="e_fr_energy">   -616.43301180 </i>
    <i name="e_wo_entrp">   -616.43301180 </i>
    <i name="e_0_energy">   -616.43301180 </i>
   </energy>
  </scstep>
  <scstep>
   <time name="dav">  171.43  175.18</time>
   <time name="total">  178.96  182.82</time>
   <energy>
    <i name="e_fr_energy">   -616.43300968 </i>
    <i name="e_wo_entrp">   -616.43300968 </i>
    <i name="e_0_energy">   -616.43300968 </i>
   </energy>
  </scstep>
  <scstep>
   <time name="dav">  203.22  207.97</time>
   <time name="total">  210.74  215.62</time>
   <energy>
    <i name="e_fr_energy">   -616.43292743 </i>
    <i name="e_wo_entrp">   -616.43292743 </i>
    <i name="e_0_energy">   -616.43292743 </i>
   </energy>
  </scstep>
  <scstep>
   <time name="dav">  206.91  211.75</time>
   <time name="total">  214.30  219.41</time>
   <energy>
    <i name="e_fr_energy">   -616.43294040 </i>
    <i name="e_wo_entrp">   -616.43294040 </i>
    <i name="e_0_energy">   -616.43294040 </i>
   </energy>
  </scstep>
  <scstep>
   <time name="dav">  238.56  243.57</time>
   <time name="total">  246.09  251.25</time>
   <energy>
    <i name="e_fr_energy">   -616.43273753 </i>
    <i name="e_wo_entrp">   -616.43273753 </i>
    <i name="e_0_energy">   -616.43273753 </i>
   </energy>
  </scstep>
  <scstep>
   <time name="dav">  278.71  284.50</time>
   <time name="total">  286.23  292.17</time>
   <energy>
    <i name="e_fr_energy">   -616.43246520 </i>
    <i name="e_wo_entrp">   -616.43246520 </i>
    <i name="e_0_energy">   -616.43246520 </i>
   </energy>
  </scstep>
  <scstep>
   <time name="dav">  256.70  262.05</time>
   <time name="total">  264.24  269.70</time>
   <energy>
    <i name="e_fr_energy">   -616.43238400 </i>
    <i name="e_wo_entrp">   -616.43238400 </i>
    <i name="e_0_energy">   -616.43238400 </i>
   </energy>
  </scstep>
  <scstep>
   <time name="dav">  264.49  269.86</time>
   <time name="total">  272.05  277.57</time>
   <energy>
    <i name="e_fr_energy">   -616.43241072 </i>
    <i name="e_wo_entrp">   -616.43241072 </i>
    <i name="e_0_energy">   -616.43241072 </i>
   </energy>
  </scstep>
  <scstep>
   <time name="dav">  187.48  191.76</time>
   <time name="total">  194.95  199.40</time>
   <energy>
    <i name="e_fr_energy">   -616.43240231 </i>
    <i name="e_wo_entrp">   -616.43240231 </i>
    <i name="e_0_energy">   -616.43240231 </i>
   </energy>
  </scstep>
  <scstep>
   <time name="dav">  200.35  205.30</time>
   <time name="total">  202.27  207.25</time>
   <energy>
    <i name="alphaZ">   1915.67052055 </i>
    <i name="ewald"> -48532.25919380 </i>
    <i name="hartreedc"> -28983.22476541 </i>
    <i name="XCdc">   3297.26480252 </i>
    <i name="pawpsdc">  81709.58998440 </i>
    <i name="pawaedc"> -84425.42204293 </i>
    <i name="eentropy">     -0.00000000 </i>
    <i name="bandstr"> -11330.01549683 </i>
    <i name="atom">  85731.96378919 </i>
    <i name="e_fr_energy">   -616.43240230 </i>
    <i name="e_wo_entrp">   -616.43240230 </i>
    <i name="e_0_energy">   -616.43240230 </i>
   </energy>
  </scstep>
  <structure>
   <crystal>
    <varray name="basis" >
     <v>      11.73572724      -0.05744286       0.00000000 </v>
     <v>       0.05480788      11.21833490       0.00000000 </v>
     <v>       0.00000000       0.00000000      11.19562010 </v>
    </varray>
    <i name="volume">   1473.99817718 </i>
    <varray name="rec_basis" >
     <v>       0.08520785      -0.00041629       0.00000000 </v>
     <v>       0.00043630       0.08913766       0.00000000 </v>
     <v>       0.00000000       0.00000000       0.08932064 </v>
    </varray>
   </crystal>
   <varray name="positions" >
    <v>       0.03541706       0.36277547       0.35648149 </v>
    <v>       0.36875039       0.36277547       0.35648149 </v>
    <v>       0.70208372       0.36277547       0.35648149 </v>
    <v>       0.03541706       0.86277547       0.35648149 </v>
    <v>       0.36875039       0.86277547       0.35648149 </v>
    <v>       0.70208372       0.86277547       0.35648149 </v>
    <v>       0.03541706       0.36277547       0.85648149 </v>
    <v>       0.36875039       0.36277547       0.85648149 </v>
    <v>       0.70208372       0.36277547       0.85648149 </v>
    <v>       0.03541706       0.86277547       0.85648149 </v>
    <v>       0.36875039       0.86277547       0.85648149 </v>
    <v>       0.70208372       0.86277547       0.85648149 </v>
    <v>       0.03541706       0.11277547       0.14351851 </v>
    <v>       0.36875039       0.11277547       0.14351851 </v>
    <v>       0.70208372       0.11277547       0.14351851 </v>
    <v>       0.03541706       0.61277547       0.14351851 </v>
    <v>       0.36875039       0.61277547       0.14351851 </v>
    <v>       0.70208372       0.61277547       0.14351851 </v>
    <v>       0.03541706       0.11277547       0.64351851 </v>
    <v>       0.36875039       0.11277547       0.64351851 </v>
    <v>       0.70208372       0.11277547       0.64351851 </v>
    <v>       0.03541706       0.61277547       0.64351851 </v>
    <v>       0.36875039       0.61277547       0.64351851 </v>
    <v>       0.70208372       0.61277547       0.64351851 </v>
    <v>       0.20294667       0.21898060       0.27246215 </v>
    <v>       0.53542792       0.21898060       0.27246215 </v>
    <v>       0.86876125       0.21898060       0.27246215 </v>
    <v>       0.20209458       0.71898060       0.27246215 </v>
    <v>       0.53542792       0.71898060       0.27246215 </v>
    <v>       0.86876125       0.71898060       0.27246215 </v>
    <v>       0.20209458       0.21898060       0.77246215 </v>
    <v>       0.53542792       0.21898060       0.77246215 </v>
    <v>       0.86876125       0.21898060       0.77246215 </v>
    <v>       0.20209458       0.71898060       0.77246215 </v>
    <v>       0.53542792       0.71898060       0.77246215 </v>
    <v>       0.86876125       0.71898060       0.77246215 </v>
    <v>       0.20209458       0.46898060       0.22753785 </v>
    <v>       0.53542792       0.46898060       0.22753785 </v>
    <v>       0.86876125       0.46898060       0.22753785 </v>
    <v>       0.20209458       0.96898060       0.22753785 </v>
    <v>       0.53542792       0.96898060       0.22753785 </v>
    <v>       0.86876125       0.96898060       0.22753785 </v>
    <v>       0.20209458       0.46898060       0.72753785 </v>
    <v>       0.53542792       0.46898060       0.72753785 </v>
    <v>       0.86876125       0.46898060       0.72753785 </v>
    <v>       0.20209458       0.96898060       0.72753785 </v>
    <v>       0.53542792       0.96898060       0.72753785 </v>
    <v>       0.86876125       0.96898060       0.72753785 </v>
    <v>       0.20209064       0.36769237       0.37376509 </v>
    <v>       0.53542398       0.36769237       0.37376509 </v>
    <v>       0.86875731       0.36769237       0.37376509 </v>
    <v>       0.20209064       0.86769237       0.37376509 </v>
    <v>       0.53542398       0.86769237       0.37376509 </v>
    <v>       0.86875731       0.86769237       0.37376509 </v>
    <v>       0.20209064       0.36769237       0.87376509 </v>
    <v>       0.53542398       0.36769237       0.87376509 </v>
    <v>       0.86875731       0.36769237       0.87376509 </v>
    <v>       0.20209064       0.86769237       0.87376509 </v>
    <v>       0.53542398       0.86769237       0.87376509 </v>
    <v>       0.86875731       0.86769237       0.87376509 </v>
    <v>       0.20209064       0.11769237       0.12623491 </v>
    <v>       0.53542398       0.11769237       0.12623491 </v>
    <v>       0.86875731       0.11769237       0.12623491 </v>
    <v>       0.20209064       0.61769237       0.12623491 </v>
    <v>       0.53542398       0.61769237       0.12623491 </v>
    <v>       0.86875731       0.61769237       0.12623491 </v>
    <v>       0.20209064       0.11769237       0.62623491 </v>
    <v>       0.53542398       0.11769237       0.62623491 </v>
    <v>       0.86875731       0.11769237       0.62623491 </v>
    <v>       0.20209064       0.61769237       0.62623491 </v>
    <v>       0.53542398       0.61769237       0.62623491 </v>
    <v>       0.86875731       0.61769237       0.62623491 </v>
    <v>       0.03542751       0.37011947       0.12029448 </v>
    <v>       0.36876084       0.37011947       0.12029448 </v>
    <v>       0.70209418       0.37011947       0.12029448 </v>
    <v>       0.03542751       0.87011947       0.12029448 </v>
    <v>       0.36876084       0.87011947       0.12029448 </v>
    <v>       0.70209418       0.87011947       0.12029448 </v>
    <v>       0.03542751       0.37011947       0.62029448 </v>
    <v>       0.36876084       0.37011947       0.62029448 </v>
    <v>       0.70209418       0.37011947       0.62029448 </v>
    <v>       0.03542751       0.87011947       0.62029448 </v>
    <v>       0.36876084       0.87011947       0.62029448 </v>
    <v>       0.70209418       0.87011947       0.62029448 </v>
    <v>       0.03542751       0.12011947       0.37970552 </v>
    <v>       0.36876084       0.12011947       0.37970552 </v>
    <v>       0.70209418       0.12011947       0.37970552 </v>
    <v>       0.03542751       0.62011947       0.37970552 </v>
    <v>       0.36876084       0.62011947       0.37970552 </v>
    <v>       0.70209418       0.62011947       0.37970552 </v>
    <v>       0.03542751       0.12011947       0.87970552 </v>
    <v>       0.36876084       0.12011947       0.87970552 </v>
    <v>       0.70209418       0.12011947       0.87970552 </v>
    <v>       0.03542751       0.62011947       0.87970552 </v>
    <v>       0.36876084       0.62011947       0.87970552 </v>
    <v>       0.70209418       0.62011947       0.87970552 </v>
    <v>       0.20209387       0.01225309       0.48003463 </v>
    <v>       0.53542720       0.01225309       0.48003463 </v>
    <v>       0.86876054       0.01225309       0.48003463 </v>
    <v>       0.20209387       0.51225309       0.48003463 </v>
    <v>       0.53542720       0.51225309       0.48003463 </v>
    <v>       0.86876054       0.51225309       0.48003463 </v>
    <v>       0.20209387       0.01225309       0.98003463 </v>
    <v>       0.53542720       0.01225309       0.98003463 </v>
    <v>       0.86876054       0.01225309       0.98003463 </v>
    <v>       0.20209387       0.51225309       0.98003463 </v>
    <v>       0.53542720       0.51225309       0.98003463 </v>
    <v>       0.86876054       0.51225309       0.98003463 </v>
    <v>       0.20209387       0.26225309       0.01996537 </v>
    <v>       0.53542720       0.26225309       0.01996537 </v>
    <v>       0.86876054       0.26225309       0.01996537 </v>
    <v>       0.20209387       0.76225309       0.01996537 </v>
    <v>       0.53542720       0.76225309       0.01996537 </v>
    <v>       0.86876054       0.76225309       0.01996537 </v>
    <v>       0.20209387       0.26225309       0.51996537 </v>
    <v>       0.53542720       0.26225309       0.51996537 </v>
    <v>       0.86876054       0.26225309       0.51996537 </v>
    <v>       0.20209387       0.76225309       0.51996537 </v>
    <v>       0.53542720       0.76225309       0.51996537 </v>
    <v>       0.86876054       0.76225309       0.51996537 </v>
   </varray>
  </structure>
  <varray name="forces" >
   <v>       0.00320288      -0.00439281      -0.00280233 </v>
   <v>       0.00513969       0.00434119       0.00267708 </v>
   <v>       0.00008580      -0.00002190      -0.00007557 </v>
   <v>      -0.00019364       0.00079738       0.00000957 </v>
   <v>       0.00186796      -0.00089732      -0.00017793 </v>
   <v>       0.00015304      -0.00002292      -0.00007085 </v>
   <v>      -0.00002810       0.00004781       0.00032450 </v>
   <v>       0.00191483      -0.00014754      -0.00051081 </v>
   <v>      -0.00003676      -0.00002298      -0.00008574 </v>
   <v>       0.00002377      -0.00011397      -0.00018934 </v>
   <v>       0.00202291      -0.00000226      -0.00002745 </v>
   <v>      -0.00015505      -0.00002288      -0.00006557 </v>
   <v>       0.00316286       0.00311912       0.00410560 </v>
   <v>       0.00507155      -0.00329917      -0.00399434 </v>
   <v>       0.00006322      -0.00002605       0.00005836 </v>
   <v>      -0.00001191      -0.00056047      -0.00002885 </v>
   <v>       0.00189423       0.00046059       0.00022750 </v>
   <v>      -0.00006523      -0.00002861       0.00007382 </v>
   <v>      -0.00013385      -0.00009978      -0.00073056 </v>
   <v>       0.00181740      -0.00002743       0.00092184 </v>
   <v>       0.00012668      -0.00004152       0.00007918 </v>
   <v>       0.00005199       0.00001154       0.00017935 </v>
   <v>       0.00201589      -0.00009316       0.00002457 </v>
   <v>      -0.00017486      -0.00002169       0.00008678 </v>
   <v>      -0.02294115       0.00035378      -0.00019547 </v>
   <v>       0.00109834       0.00028697      -0.00028335 </v>
   <v>       0.00108410      -0.00007683       0.00012505 </v>
   <v>      -0.00034114       0.00005209      -0.00012801 </v>
   <v>      -0.00009130       0.00000773      -0.00010500 </v>
   <v>      -0.00011934       0.00018717      -0.00006563 </v>
   <v>      -0.00035095       0.00007324      -0.00010177 </v>
   <v>      -0.00008876       0.00010504      -0.00004158 </v>
   <v>      -0.00011850       0.00007116      -0.00018887 </v>
   <v>      -0.00053820       0.00007450      -0.00007594 </v>
   <v>       0.00000358       0.00010814      -0.00007990 </v>
   <v>      -0.00001901       0.00009610      -0.00006960 </v>
   <v>      -0.00166269       0.00013977       0.00009136 </v>
   <v>       0.00032790       0.00035547       0.00023798 </v>
   <v>       0.00029639      -0.00013632      -0.00010932 </v>
   <v>      -0.00168587       0.00013911       0.00007682 </v>
   <v>       0.00033830      -0.00025647      -0.00028691 </v>
   <v>       0.00030650       0.00035200       0.00048104 </v>
   <v>      -0.00044250       0.00012102       0.00008676 </v>
   <v>      -0.00004246       0.00014218       0.00002632 </v>
   <v>      -0.00007241       0.00009545       0.00010871 </v>
   <v>      -0.00043967       0.00009947       0.00005590 </v>
   <v>      -0.00002533      -0.00002879       0.00019518 </v>
   <v>      -0.00007579       0.00018669      -0.00007401 </v>
   <v>       0.00560136       0.00002140       0.00039907 </v>
   <v>      -0.00090026      -0.00073135       0.00014049 </v>
   <v>      -0.00109158       0.00071790       0.00075228 </v>
   <v>       0.00119364       0.00004572       0.00024799 </v>
   <v>      -0.00074151       0.00116331       0.00055065 </v>
   <v>      -0.00097346      -0.00113725       0.00046621 </v>
   <v>       0.00092618      -0.00002510       0.00030817 </v>
   <v>      -0.00065670       0.00008079       0.00112042 </v>
   <v>      -0.00081362      -0.00013724      -0.00033444 </v>
   <v>       0.00045147      -0.00000502       0.00037739 </v>
   <v>      -0.00020111      -0.00005674       0.00057814 </v>
   <v>      -0.00048074       0.00003966       0.00046961 </v>
   <v>       0.00571760      -0.00013023      -0.00034506 </v>
   <v>      -0.00086367       0.00040629       0.00025996 </v>
   <v>      -0.00116052      -0.00030675      -0.00117789 </v>
   <v>       0.00083091      -0.00000373      -0.00035223 </v>
   <v>      -0.00050498      -0.00056824      -0.00064775 </v>
   <v>      -0.00077579       0.00060170      -0.00030439 </v>
   <v>       0.00142971       0.00002964      -0.00031890 </v>
   <v>      -0.00092680       0.00000131      -0.00165044 </v>
   <v>      -0.00118256       0.00028092       0.00078718 </v>
   <v>       0.00046028      -0.00005240      -0.00034119 </v>
   <v>      -0.00023357       0.00008984      -0.00051993 </v>
   <v>      -0.00044954      -0.00005371      -0.00035857 </v>
   <v>      -0.00129974       0.00200542      -0.00278784 </v>
   <v>      -0.00134127      -0.00223849       0.00257632 </v>
   <v>      -0.00104485      -0.00009506      -0.00011105 </v>
   <v>       0.00009346      -0.00037153      -0.00044263 </v>
   <v>       0.00004181       0.00015554       0.00024164 </v>
   <v>      -0.00060205      -0.00011669      -0.00013512 </v>
   <v>       0.00015948       0.00020824       0.00007643 </v>
   <v>       0.00014617      -0.00043232      -0.00029234 </v>
   <v>      -0.00074257      -0.00010584      -0.00011478 </v>
   <v>       0.00016175      -0.00065321       0.00028304 </v>
   <v>       0.00011372       0.00039845      -0.00052080 </v>
   <v>      -0.00076207      -0.00012015      -0.00013095 </v>
   <v>       0.00281614       0.00044697       0.00011569 </v>
   <v>       0.00307256      -0.00083772       0.00028798 </v>
   <v>      -0.00166058      -0.00010779       0.00009405 </v>
   <v>       0.00009686      -0.00005737       0.00029581 </v>
   <v>       0.00008139      -0.00015655      -0.00003969 </v>
   <v>      -0.00060128      -0.00010881       0.00011341 </v>
   <v>       0.00012376      -0.00026597       0.00009018 </v>
   <v>       0.00013713       0.00007314       0.00011502 </v>
   <v>      -0.00066299      -0.00010653       0.00009598 </v>
   <v>       0.00007624       0.00018167      -0.00011158 </v>
   <v>       0.00006501      -0.00038259       0.00035224 </v>
   <v>      -0.00059991      -0.00009573       0.00012602 </v>
   <v>      -0.00316480       0.00008242       0.00006542 </v>
   <v>       0.00183218      -0.00083564       0.00075143 </v>
   <v>       0.00176753       0.00087039      -0.00063558 </v>
   <v>      -0.00024405       0.00003365       0.00004341 </v>
   <v>      -0.00004225       0.00036351       0.00028238 </v>
   <v>      -0.00013711      -0.00026903      -0.00015994 </v>
   <v>      -0.00023624       0.00004936       0.00006984 </v>
   <v>      -0.00004766      -0.00017975      -0.00024658 </v>
   <v>      -0.00013086       0.00022859       0.00036512 </v>
   <v>      -0.00154363       0.00008654       0.00007721 </v>
   <v>       0.00082111       0.00069617      -0.00042979 </v>
   <v>       0.00072186      -0.00058095       0.00061049 </v>
   <v>      -0.00301909       0.00003441      -0.00002153 </v>
   <v>       0.00073731      -0.00036866      -0.00053030 </v>
   <v>       0.00064498       0.00043733       0.00043190 </v>
   <v>      -0.00054686       0.00003963      -0.00005841 </v>
   <v>       0.00000947       0.00019086      -0.00014721 </v>
   <v>      -0.00009530      -0.00013072       0.00002733 </v>
   <v>      -0.00308660       0.00007884      -0.00012242 </v>
   <v>       0.00088421       0.00087733       0.00054633 </v>
   <v>       0.00077299      -0.00082470      -0.00068133 </v>
   <v>      -0.00060833       0.00004615      -0.00005021 </v>
   <v>       0.00003210      -0.00029186       0.00018251 </v>
   <v>      -0.00005921       0.00039449      -0.00034236 </v>
  </varray>
  <varray name="stress" >
   <v>       0.13435928      -0.00215283       0.00691036 </v>
   <v>      -0.00288541       0.11889091      -0.00074943 </v>
   <v>       0.00691049      -0.00074934       0.11740739 </v>
  </varray>
  <energy>
   <i name="e_fr_energy">   -616.43240230 </i>
   <i name="e_wo_entrp">   -616.43240230 </i>
   <i name="e_0_energy">     -0.00000000 </i>
  </energy>
  <time name="totalsc"> 7356.56 7515.67</time>
  <eigenvalues>
   <array>
    <dimension dim="1">band</dimension>
    <dimension dim="2">kpoint</dimension>
    <dimension dim="3">spin</dimension>
    <field>eigene</field>
    <field>occ</field>
    <set>
     <set comment="spin 1">
      <set comment="kpoint 1">
       <r>  -51.4830    1.0000 </r>
       <r>  -51.4827    1.0000 </r>
       <r>  -51.4823    1.0000 </r>
       <r>  -51.4823    1.0000 </r>
       <r>  -51.4818    1.0000 </r>
       <r>  -51.4815    1.0000 </r>
       <r>  -51.4674    1.0000 </r>
       <r>  -51.4673    1.0000 </r>
       <r>  -51.4671    1.0000 </r>
       <r>  -51.4670    1.0000 </r>
       <r>  -51.4666    1.0000 </r>
       <r>  -51.4666    1.0000 </r>
       <r>  -51.4666    1.0000 </r>
       <r>  -51.4666    1.0000 </r>
       <r>  -51.4662    1.0000 </r>
       <r>  -51.4661    1.0000 </r>
       <r>  -51.4660    1.0000 </r>
       <r>  -51.4657    1.0000 </r>
       <r>  -51.4518    1.0000 </r>
       <r>  -51.4515    1.0000 </r>
       <r>  -51.4511    1.0000 </r>
       <r>  -51.4511    1.0000 </r>
       <r>  -51.4506    1.0000 </r>
       <r>  -51.4503    1.0000 </r>
       <r>  -50.2024    1.0000 </r>
       <r>  -50.2021    1.0000 </r>
       <r>  -50.2016    1.0000 </r>
       <r>  -50.2016    1.0000 </r>
       <r>  -50.2009    1.0000 </r>
       <r>  -50.2007    1.0000 </r>
       <r>  -50.1997    1.0000 </r>
       <r>  -50.1996    1.0000 </r>
       <r>  -50.1995    1.0000 </r>
       <r>  -50.1994    1.0000 </r>
       <r>  -50.1989    1.0000 </r>
       <r>  -50.1989    1.0000 </r>
       <r>  -50.1989    1.0000 </r>
       <r>  -50.1989    1.0000 </r>
       <r>  -50.1983    1.0000 </r>
       <r>  -50.1982    1.0000 </r>
       <r>  -50.1981    1.0000 </r>
       <r>  -50.1979    1.0000 </r>
       <r>  -50.1969    1.0000 </r>
       <r>  -50.1967    1.0000 </r>
       <r>  -50.1962    1.0000 </r>
       <r>  -50.1962    1.0000 </r>
       <r>  -50.1955    1.0000 </r>
       <r>  -50.1953    1.0000 </r>
       <r>  -50.0078    1.0000 </r>
       <r>  -50.0075    1.0000 </r>
       <r>  -50.0071    1.0000 </r>
       <r>  -50.0070    1.0000 </r>
       <r>  -50.0066    1.0000 </r>
       <r>  -50.0063    1.0000 </r>
       <r>  -49.9917    1.0000 </r>
       <r>  -49.9914    1.0000 </r>
       <r>  -49.9913    1.0000 </r>
       <r>  -49.9912    1.0000 </r>
       <r>  -49.9908    1.0000 </r>
       <r>  -49.9908    1.0000 </r>
       <r>  -49.9908    1.0000 </r>
       <r>  -49.9908    1.0000 </r>
       <r>  -49.9904    1.0000 </r>
       <r>  -49.9903    1.0000 </r>
       <r>  -49.9902    1.0000 </r>
       <r>  -49.9899    1.0000 </r>
       <r>  -49.9751    1.0000 </r>
       <r>  -49.9747    1.0000 </r>
       <r>  -49.9743    1.0000 </r>
       <r>  -49.9743    1.0000 </r>
       <r>  -49.9739    1.0000 </r>
       <r>  -49.9735    1.0000 </r>
       <r>  -40.5222    1.0000 </r>
       <r>  -40.5221    1.0000 </r>
       <r>  -40.5202    1.0000 </r>
       <r>  -40.5199    1.0000 </r>
       <r>  -40.5191    1.0000 </r>
       <r>  -40.5187    1.0000 </r>
       <r>  -40.5138    1.0000 </r>
       <r>  -40.5133    1.0000 </r>
       <r>  -40.5126    1.0000 </r>
       <r>  -40.5124    1.0000 </r>
       <r>  -40.5119    1.0000 </r>
       <r>  -40.5117    1.0000 </r>
       <r>  -40.5113    1.0000 </r>
       <r>  -40.5108    1.0000 </r>
       <r>  -40.5106    1.0000 </r>
       <r>  -40.5097    1.0000 </r>
       <r>  -40.5091    1.0000 </r>
       <r>  -40.5089    1.0000 </r>
       <r>  -40.5029    1.0000 </r>
       <r>  -40.5027    1.0000 </r>
       <r>  -40.5023    1.0000 </r>
       <r>  -40.5023    1.0000 </r>
       <r>  -40.5018    1.0000 </r>
       <r>  -40.5009    1.0000 </r>
       <r>  -40.3091    1.0000 </r>
       <r>  -40.3081    1.0000 </r>
       <r>  -40.3063    1.0000 </r>
       <r>  -40.3059    1.0000 </r>
       <r>  -40.3058    1.0000 </r>
       <r>  -40.3056    1.0000 </r>
       <r>  -40.3055    1.0000 </r>
       <r>  -40.3054    1.0000 </r>
       <r>  -40.3053    1.0000 </r>
       <r>  -40.3051    1.0000 </r>
       <r>  -40.3049    1.0000 </r>
       <r>  -40.3048    1.0000 </r>
       <r>  -40.3048    1.0000 </r>
       <r>  -40.3045    1.0000 </r>
       <r>  -40.3041    1.0000 </r>
       <r>  -40.3041    1.0000 </r>
       <r>  -40.3039    1.0000 </r>
       <r>  -40.3034    1.0000 </r>
       <r>  -40.3032    1.0000 </r>
       <r>  -40.3028    1.0000 </r>
       <r>  -40.3024    1.0000 </r>
       <r>  -40.3018    1.0000 </r>
       <r>  -40.3017    1.0000 </r>
       <r>  -40.3004    1.0000 </r>
       <r>  -13.5433    1.0000 </r>
       <r>  -13.5426    1.0000 </r>
       <r>  -13.5128    1.0000 </r>
       <r>  -13.5121    1.0000 </r>
       <r>  -13.5120    1.0000 </r>
       <r>  -13.4894    1.0000 </r>
       <r>  -13.3752    1.0000 </r>
       <r>  -13.3751    1.0000 </r>
       <r>  -13.3745    1.0000 </r>
       <r>  -13.3745    1.0000 </r>
       <r>  -13.3738    1.0000 </r>
       <r>  -13.3738    1.0000 </r>
       <r>  -13.3731    1.0000 </r>
       <r>  -13.3731    1.0000 </r>
       <r>  -13.3409    1.0000 </r>
       <r>  -13.3409    1.0000 </r>
       <r>  -13.3373    1.0000 </r>
       <r>  -13.3373    1.0000 </r>
       <r>  -13.2393    1.0000 </r>
       <r>  -13.2386    1.0000 </r>
       <r>  -13.2026    1.0000 </r>
       <r>  -13.2019    1.0000 </r>
       <r>  -13.1980    1.0000 </r>
       <r>  -13.1654    1.0000 </r>
       <r>   -7.7344    1.0000 </r>
       <r>   -7.6695    1.0000 </r>
       <r>   -7.5824    1.0000 </r>
       <r>   -7.5824    1.0000 </r>
       <r>   -7.5406    1.0000 </r>
       <r>   -7.5405    1.0000 </r>
       <r>   -7.5310    1.0000 </r>
       <r>   -7.5295    1.0000 </r>
       <r>   -7.4084    1.0000 </r>
       <r>   -7.3749    1.0000 </r>
       <r>   -7.3735    1.0000 </r>
       <r>   -7.3525    1.0000 </r>
       <r>   -7.3521    1.0000 </r>
       <r>   -7.3510    1.0000 </r>
       <r>   -7.3507    1.0000 </r>
       <r>   -7.3436    1.0000 </r>
       <r>   -7.3433    1.0000 </r>
       <r>   -7.3422    1.0000 </r>
       <r>   -7.3418    1.0000 </r>
       <r>   -7.3154    1.0000 </r>
       <r>   -7.3139    1.0000 </r>
       <r>   -7.2339    1.0000 </r>
       <r>   -7.1167    1.0000 </r>
       <r>   -7.1153    1.0000 </r>
       <r>   -1.9251    1.0000 </r>
       <r>   -1.9147    1.0000 </r>
       <r>   -1.8865    1.0000 </r>
       <r>   -1.8451    1.0000 </r>
       <r>   -1.8445    1.0000 </r>
       <r>   -1.7998    1.0000 </r>
       <r>   -1.7992    1.0000 </r>
       <r>   -1.7919    1.0000 </r>
       <r>   -1.7915    1.0000 </r>
       <r>   -1.7913    1.0000 </r>
       <r>   -1.7782    1.0000 </r>
       <r>   -1.7776    1.0000 </r>
       <r>   -1.5322    1.0000 </r>
       <r>   -1.5322    1.0000 </r>
       <r>   -1.5148    1.0000 </r>
       <r>   -1.5148    1.0000 </r>
       <r>   -1.4880    1.0000 </r>
       <r>   -1.4879    1.0000 </r>
       <r>   -1.4874    1.0000 </r>
       <r>   -1.4873    1.0000 </r>
       <r>   -1.4736    1.0000 </r>
       <r>   -1.4735    1.0000 </r>
       <r>   -1.4729    1.0000 </r>
       <r>   -1.4729    1.0000 </r>
       <r>   -1.4344    1.0000 </r>
       <r>   -1.4337    1.0000 </r>
       <r>   -1.3249    1.0000 </r>
       <r>   -1.3242    1.0000 </r>
       <r>   -1.2051    1.0000 </r>
       <r>   -1.1837    1.0000 </r>
       <r>   -1.1565    1.0000 </r>
       <r>   -1.1565    1.0000 </r>
       <r>   -1.1559    1.0000 </r>
       <r>   -1.1558    1.0000 </r>
       <r>   -1.0797    1.0000 </r>
       <r>   -1.0797    1.0000 </r>
       <r>   -1.0582    1.0000 </r>
       <r>   -1.0582    1.0000 </r>
       <r>   -1.0580    1.0000 </r>
       <r>   -1.0580    1.0000 </r>
       <r>   -0.9978    1.0000 </r>
       <r>   -0.9971    1.0000 </r>
       <r>   -0.9797    1.0000 </r>
       <r>   -0.9797    1.0000 </r>
       <r>   -0.9379    1.0000 </r>
       <r>   -0.9378    1.0000 </r>
       <r>   -0.9378    1.0000 </r>
       <r>   -0.9377    1.0000 </r>
       <r>   -0.9178    1.0000 </r>
       <r>   -0.9177    1.0000 </r>
       <r>   -0.9172    1.0000 </r>
       <r>   -0.9171    1.0000 </r>
       <r>   -0.9080    1.0000 </r>
       <r>   -0.9072    1.0000 </r>
       <r>   -0.8209    1.0000 </r>
       <r>   -0.8209    1.0000 </r>
       <r>   -0.8183    1.0000 </r>
       <r>   -0.8182    1.0000 </r>
       <r>   -0.6980    1.0000 </r>
       <r>   -0.6678    1.0000 </r>
       <r>   -0.6393    1.0000 </r>
       <r>   -0.6024    1.0000 </r>
       <r>   -0.5699    1.0000 </r>
       <r>   -0.5062    1.0000 </r>
       <r>   -0.5053    1.0000 </r>
       <r>   -0.5051    1.0000 </r>
       <r>   -0.5048    1.0000 </r>
       <r>   -0.5047    1.0000 </r>
       <r>   -0.4619    1.0000 </r>
       <r>   -0.4617    1.0000 </r>
       <r>   -0.4595    1.0000 </r>
       <r>   -0.4588    1.0000 </r>
       <r>   -0.3999    1.0000 </r>
       <r>   -0.3991    1.0000 </r>
       <r>   -0.3982    1.0000 </r>
       <r>   -0.3981    1.0000 </r>
       <r>   -0.3979    1.0000 </r>
       <r>   -0.3977    1.0000 </r>
       <r>   -0.2859    1.0000 </r>
       <r>   -0.2858    1.0000 </r>
       <r>   -0.2823    1.0000 </r>
[...]
       <r>   -39.9645     0.2096   120.0000 </r>
       <r>   -39.7263     0.0000   120.0000 </r>
       <r>   -39.4882     0.0000   120.0000 </r>
       <r>   -39.2500     0.0000   120.0000 </r>
       <r>   -39.0118     0.0000   120.0000 </r>
       <r>   -38.7737     0.0000   120.0000 </r>
       <r>   -38.5355     0.0000   120.0000 </r>
       <r>   -38.2973     0.0000   120.0000 </r>
       <r>   -38.0592     0.0000   120.0000 </r>
       <r>   -37.8210     0.0000   120.0000 </r>
       <r>   -37.5828     0.0000   120.0000 </r>
       <r>   -37.3447     0.0000   120.0000 </r>
       <r>   -37.1065     0.0000   120.0000 </r>
       <r>   -36.8684     0.0000   120.0000 </r>
       <r>   -36.6302     0.0000   120.0000 </r>
       <r>   -36.3920     0.0000   120.0000 </r>
       <r>   -36.1539     0.0000   120.0000 </r>
       <r>   -35.9157     0.0000   120.0000 </r>
       <r>   -35.6775     0.0000   120.0000 </r>
       <r>   -35.4394     0.0000   120.0000 </r>
       <r>   -35.2012     0.0000   120.0000 </r>
       <r>   -34.9630     0.0000   120.0000 </r>
       <r>   -34.7249     0.0000   120.0000 </r>
       <r>   -34.4867     0.0000   120.0000 </r>
       <r>   -34.2485     0.0000   120.0000 </r>
       <r>   -34.0104     0.0000   120.0000 </r>
       <r>   -33.7722     0.0000   120.0000 </r>
       <r>   -33.5340     0.0000   120.0000 </r>
       <r>   -33.2959     0.0000   120.0000 </r>
       <r>   -33.0577     0.0000   120.0000 </r>
       <r>   -32.8195     0.0000   120.0000 </r>
       <r>   -32.5814     0.0000   120.0000 </r>
       <r>   -32.3432     0.0000   120.0000 </r>
       <r>   -32.1050     0.0000   120.0000 </r>
       <r>   -31.8669     0.0000   120.0000 </r>
       <r>   -31.6287     0.0000   120.0000 </r>
       <r>   -31.3905     0.0000   120.0000 </r>
       <r>   -31.1524     0.0000   120.0000 </r>
       <r>   -30.9142     0.0000   120.0000 </r>
       <r>   -30.6761     0.0000   120.0000 </r>
       <r>   -30.4379     0.0000   120.0000 </r>
       <r>   -30.1997     0.0000   120.0000 </r>
       <r>   -29.9616     0.0000   120.0000 </r>
       <r>   -29.7234     0.0000   120.0000 </r>
       <r>   -29.4852     0.0000   120.0000 </r>
       <r>   -29.2471     0.0000   120.0000 </r>
       <r>   -29.0089     0.0000   120.0000 </r>
       <r>   -28.7707     0.0000   120.0000 </r>
       <r>   -28.5326     0.0000   120.0000 </r>
       <r>   -28.2944     0.0000   120.0000 </r>
       <r>   -28.0562     0.0000   120.0000 </r>
       <r>   -27.8181     0.0000   120.0000 </r>
       <r>   -27.5799     0.0000   120.0000 </r>
       <r>   -27.3417     0.0000   120.0000 </r>
       <r>   -27.1036     0.0000   120.0000 </r>
       <r>   -26.8654     0.0000   120.0000 </r>
       <r>   -26.6272     0.0000   120.0000 </r>
       <r>   -26.3891     0.0000   120.0000 </r>
       <r>   -26.1509     0.0000   120.0000 </r>
       <r>   -25.9127     0.0000   120.0000 </r>
       <r>   -25.6746     0.0000   120.0000 </r>
       <r>   -25.4364     0.0000   120.0000 </r>
       <r>   -25.1982     0.0000   120.0000 </r>
       <r>   -24.9601     0.0000   120.0000 </r>
       <r>   -24.7219     0.0000   120.0000 </r>
       <r>   -24.4838     0.0000   120.0000 </r>
       <r>   -24.2456     0.0000   120.0000 </r>
       <r>   -24.0074     0.0000   120.0000 </r>
       <r>   -23.7693     0.0000   120.0000 </r>
       <r>   -23.5311     0.0000   120.0000 </r>
       <r>   -23.2929     0.0000   120.0000 </r>
       <r>   -23.0548     0.0000   120.0000 </r>
       <r>   -22.8166     0.0000   120.0000 </r>
       <r>   -22.5784     0.0000   120.0000 </r>
       <r>   -22.3403     0.0000   120.0000 </r>
       <r>   -22.1021     0.0000   120.0000 </r>
       <r>   -21.8639     0.0000   120.0000 </r>
       <r>   -21.6258     0.0000   120.0000 </r>
       <r>   -21.3876     0.0000   120.0000 </r>
       <r>   -21.1494     0.0000   120.0000 </r>
       <r>   -20.9113     0.0000   120.0000 </r>
       <r>   -20.6731     0.0000   120.0000 </r>
       <r>   -20.4349     0.0000   120.0000 </r>
       <r>   -20.1968     0.0000   120.0000 </r>
       <r>   -19.9586     0.0000   120.0000 </r>
       <r>   -19.7204     0.0000   120.0000 </r>
       <r>   -19.4823     0.0000   120.0000 </r>
       <r>   -19.2441     0.0000   120.0000 </r>
       <r>   -19.0059     0.0000   120.0000 </r>
       <r>   -18.7678     0.0000   120.0000 </r>
       <r>   -18.5296     0.0000   120.0000 </r>
       <r>   -18.2915     0.0000   120.0000 </r>
       <r>   -18.0533     0.0000   120.0000 </r>
       <r>   -17.8151     0.0000   120.0000 </r>
       <r>   -17.5770     0.0000   120.0000 </r>
       <r>   -17.3388     0.0000   120.0000 </r>
       <r>   -17.1006     0.0000   120.0000 </r>
       <r>   -16.8625     0.0000   120.0000 </r>
       <r>   -16.6243     0.0000   120.0000 </r>
       <r>   -16.3861     0.0000   120.0000 </r>
       <r>   -16.1480     0.0000   120.0000 </r>
       <r>   -15.9098     0.0000   120.0000 </r>
       <r>   -15.6716     0.0000   120.0000 </r>
       <r>   -15.4335     0.0000   120.0000 </r>
       <r>   -15.1953     0.0000   120.0000 </r>
       <r>   -14.9571     0.0000   120.0000 </r>
       <r>   -14.7190     0.0000   120.0000 </r>
       <r>   -14.4808     0.0000   120.0000 </r>
       <r>   -14.2426     0.0000   120.0000 </r>
       <r>   -14.0045     0.0000   120.0000 </r>
       <r>   -13.7663     0.0000   120.0000 </r>
       <r>   -13.5281     0.0000   120.0000 </r>
       <r>   -13.2900     0.2039   120.0486 </r>
       <r>   -13.0518    64.7444   135.4684 </r>
       <r>   -12.8136    35.8219   144.0000 </r>
       <r>   -12.5755     0.0001   144.0000 </r>
       <r>   -12.3373     0.0000   144.0000 </r>
       <r>   -12.0992     0.0000   144.0000 </r>
       <r>   -11.8610     0.0000   144.0000 </r>
       <r>   -11.6228     0.0000   144.0000 </r>
       <r>   -11.3847     0.0000   144.0000 </r>
       <r>   -11.1465     0.0000   144.0000 </r>
       <r>   -10.9083     0.0000   144.0000 </r>
       <r>   -10.6702     0.0000   144.0000 </r>
       <r>   -10.4320     0.0000   144.0000 </r>
       <r>   -10.1938     0.0000   144.0000 </r>
       <r>    -9.9557     0.0000   144.0000 </r>
       <r>    -9.7175     0.0000   144.0000 </r>
       <r>    -9.4793     0.0000   144.0000 </r>
       <r>    -9.2412     0.0000   144.0000 </r>
       <r>    -9.0030     0.0000   144.0000 </r>
       <r>    -8.7648     0.0000   144.0000 </r>
       <r>    -8.5267     0.0000   144.0000 </r>
       <r>    -8.2885     0.0000   144.0000 </r>
       <r>    -8.0503     0.0000   144.0000 </r>
       <r>    -7.8122     0.0000   144.0000 </r>
       <r>    -7.5740     0.0798   144.0190 </r>
       <r>    -7.3358    27.5432   150.5788 </r>
       <r>    -7.0977    49.3735   162.3379 </r>
       <r>    -6.8595    22.9238   167.7976 </r>
       <r>    -6.6213     0.8500   168.0000 </r>
       <r>    -6.3832     0.0000   168.0000 </r>
       <r>    -6.1450     0.0000   168.0000 </r>
       <r>    -5.9069     0.0000   168.0000 </r>
       <r>    -5.6687     0.0000   168.0000 </r>
       <r>    -5.4305     0.0000   168.0000 </r>
       <r>    -5.1924     0.0000   168.0000 </r>
       <r>    -4.9542     0.0000   168.0000 </r>
       <r>    -4.7160     0.0000   168.0000 </r>
       <r>    -4.4779     0.0000   168.0000 </r>
       <r>    -4.2397     0.0000   168.0000 </r>
       <r>    -4.0015     0.0000   168.0000 </r>
       <r>    -3.7634     0.0000   168.0000 </r>
       <r>    -3.5252     0.0000   168.0000 </r>
       <r>    -3.2870     0.0000   168.0000 </r>
       <r>    -3.0489     0.0000   168.0000 </r>
       <r>    -2.8107     0.0000   168.0000 </r>
       <r>    -2.5725     0.0000   168.0000 </r>
       <r>    -2.3344     0.0000   168.0000 </r>
       <r>    -2.0962     0.0000   168.0000 </r>
       <r>    -1.8580     0.0000   168.0000 </r>
       <r>    -1.6199     0.0000   168.0000 </r>
       <r>    -1.3817     0.0000   168.0000 </r>
       <r>    -1.1435     0.0000   168.0000 </r>
       <r>    -0.9054     0.0000   168.0000 </r>
       <r>    -0.6672     1.4362   168.3421 </r>
       <r>    -0.4291    16.4383   172.2571 </r>
       <r>    -0.1909    38.5240   181.4322 </r>
       <r>     0.0473    36.0525   190.0186 </r>
       <r>     0.2854    21.6428   195.1732 </r>
       <r>     0.5236    48.5821   206.7438 </r>
       <r>     0.7618    48.0976   218.1990 </r>
       <r>     0.9999    68.2125   234.4448 </r>
       <r>     1.2381    28.1363   241.1459 </r>
       <r>     1.4763    22.1664   246.4252 </r>
       <r>     1.7144    37.4090   255.3347 </r>
       <r>     1.9526    46.0986   266.3138 </r>
       <r>     2.1908    30.0927   273.4809 </r>
       <r>     2.4289    35.9154   282.0347 </r>
       <r>     2.6671    25.2661   288.0522 </r>
       <r>     2.9053    45.6068   298.9141 </r>
       <r>     3.1434    41.8769   308.8878 </r>
       <r>     3.3816    15.4973   312.5787 </r>
       <r>     3.6198    28.5893   319.3877 </r>
       <r>     3.8579    57.8550   333.1667 </r>
       <r>     4.0961    11.8963   336.0000 </r>
       <r>     4.3343     0.0000   336.0000 </r>
       <r>     4.5724     0.0000   336.0000 </r>
       <r>     4.8106     0.0000   336.0000 </r>
       <r>     5.0488     0.0000   336.0000 </r>
       <r>     5.2869     0.0000   336.0000 </r>
       <r>     5.5251     0.0000   336.0000 </r>
       <r>     5.7632     0.0000   336.0000 </r>
       <r>     6.0014     0.0017   336.0004 </r>
       <r>     6.2396     1.7358   336.4138 </r>
       <r>     6.4777    12.8280   339.4690 </r>
       <r>     6.7159    26.7720   345.8451 </r>
       <r>     6.9541    24.8272   351.7581 </r>
       <r>     7.1922    55.3099   364.9310 </r>
       <r>     7.4304    77.4233   383.3706 </r>
       <r>     7.6686    29.9734   390.5092 </r>
       <r>     7.9067    40.7250   400.2085 </r>
       <r>     8.1449    76.2641   418.3719 </r>
       <r>     8.3831    53.1123   431.0215 </r>
       <r>     8.6212     4.4968   432.0925 </r>
       <r>     8.8594     1.0322   432.3383 </r>
       <r>     9.0976     4.3798   433.3814 </r>
       <r>     9.3357    10.1447   435.7975 </r>
       <r>     9.5739    20.2807   440.6277 </r>
       <r>     9.8121    28.6320   447.4468 </r>
       <r>    10.0502    29.9590   454.5820 </r>
       <r>    10.2884    30.4142   461.8256 </r>
       <r>    10.5266    25.8705   467.9871 </r>
       <r>    10.7647    26.0583   474.1933 </r>
       <r>    11.0029    24.8974   480.1230 </r>
       <r>    11.2411     9.9898   482.5022 </r>
       <r>    11.4792    25.3621   488.5426 </r>
       <r>    11.7174    29.2304   495.5043 </r>
       <r>    11.9555    57.1316   509.1110 </r>
       <r>    12.1937    44.7458   519.7679 </r>
       <r>    12.4319    27.2760   526.2641 </r>
       <r>    12.6700    23.4743   531.8549 </r>
       <r>    12.9082    28.0273   538.5300 </r>
       <r>    13.1464    32.8162   546.3457 </r>
       <r>    13.3845    19.8630   551.0764 </r>
       <r>    13.6227     3.8781   552.0000 </r>
       <r>    13.8609     0.0000   552.0000 </r>
       <r>    14.0990     0.0000   552.0000 </r>
       <r>    14.3372     0.0000   552.0000 </r>
       <r>    14.5754     0.0000   552.0000 </r>
       <r>    14.8135     0.0000   552.0000 </r>
       <r>    15.0517     0.0000   552.0000 </r>
       <r>    15.2899     0.0000   552.0000 </r>
       <r>    15.5280     0.0000   552.0000 </r>
       <r>    15.7662     0.0000   552.0000 </r>
       <r>    16.0044     0.0000   552.0000 </r>
       <r>    16.2425     0.0000   552.0000 </r>
       <r>    16.4807     0.0000   552.0000 </r>
       <r>    16.7189     0.0000   552.0000 </r>
      </set>
     </set>
    </array>
   </total>
  </dos>
 </calculation>
 <structure name="finalpos" >
  <crystal>
   <varray name="basis" >
    <v>      11.73572724      -0.05744286       0.00000000 </v>
    <v>       0.05480788      11.21833490       0.00000000 </v>
    <v>       0.00000000       0.00000000      11.19562010 </v>
   </varray>
   <i name="volume">   1473.99817718 </i>
   <varray name="rec_basis" >
    <v>       0.08520785      -0.00041629       0.00000000 </v>
    <v>       0.00043630       0.08913766       0.00000000 </v>
    <v>       0.00000000       0.00000000       0.08932064 </v>
   </varray>
  </crystal>
  <varray name="positions" >
   <v>       0.03541706       0.36277547       0.35648149 </v>
   <v>       0.36875039       0.36277547       0.35648149 </v>
   <v>       0.70208372       0.36277547       0.35648149 </v>
   <v>       0.03541706       0.86277547       0.35648149 </v>
   <v>       0.36875039       0.86277547       0.35648149 </v>
   <v>       0.70208372       0.86277547       0.35648149 </v>
   <v>       0.03541706       0.36277547       0.85648149 </v>
   <v>       0.36875039       0.36277547       0.85648149 </v>
   <v>       0.70208372       0.36277547       0.85648149 </v>
   <v>       0.03541706       0.86277547       0.85648149 </v>
   <v>       0.36875039       0.86277547       0.85648149 </v>
   <v>       0.70208372       0.86277547       0.85648149 </v>
   <v>       0.03541706       0.11277547       0.14351851 </v>
   <v>       0.36875039       0.11277547       0.14351851 </v>
   <v>       0.70208372       0.11277547       0.14351851 </v>
   <v>       0.03541706       0.61277547       0.14351851 </v>
   <v>       0.36875039       0.61277547       0.14351851 </v>
   <v>       0.70208372       0.61277547       0.14351851 </v>
   <v>       0.03541706       0.11277547       0.64351851 </v>
   <v>       0.36875039       0.11277547       0.64351851 </v>
   <v>       0.70208372       0.11277547       0.64351851 </v>
   <v>       0.03541706       0.61277547       0.64351851 </v>
   <v>       0.36875039       0.61277547       0.64351851 </v>
   <v>       0.70208372       0.61277547       0.64351851 </v>
   <v>       0.20294667       0.21898060       0.27246215 </v>
   <v>       0.53542792       0.21898060       0.27246215 </v>
   <v>       0.86876125       0.21898060       0.27246215 </v>
   <v>       0.20209458       0.71898060       0.27246215 </v>
   <v>       0.53542792       0.71898060       0.27246215 </v>
   <v>       0.86876125       0.71898060       0.27246215 </v>
   <v>       0.20209458       0.21898060       0.77246215 </v>
   <v>       0.53542792       0.21898060       0.77246215 </v>
   <v>       0.86876125       0.21898060       0.77246215 </v>
   <v>       0.20209458       0.71898060       0.77246215 </v>
   <v>       0.53542792       0.71898060       0.77246215 </v>
   <v>       0.86876125       0.71898060       0.77246215 </v>
   <v>       0.20209458       0.46898060       0.22753785 </v>
   <v>       0.53542792       0.46898060       0.22753785 </v>
   <v>       0.86876125       0.46898060       0.22753785 </v>
   <v>       0.20209458       0.96898060       0.22753785 </v>
   <v>       0.53542792       0.96898060       0.22753785 </v>
   <v>       0.86876125       0.96898060       0.22753785 </v>
   <v>       0.20209458       0.46898060       0.72753785 </v>
   <v>       0.53542792       0.46898060       0.72753785 </v>
   <v>       0.86876125       0.46898060       0.72753785 </v>
   <v>       0.20209458       0.96898060       0.72753785 </v>
   <v>       0.53542792       0.96898060       0.72753785 </v>
   <v>       0.86876125       0.96898060       0.72753785 </v>
   <v>       0.20209064       0.36769237       0.37376509 </v>
   <v>       0.53542398       0.36769237       0.37376509 </v>
   <v>       0.86875731       0.36769237       0.37376509 </v>
   <v>       0.20209064       0.86769237       0.37376509 </v>
   <v>       0.53542398       0.86769237       0.37376509 </v>
   <v>       0.86875731       0.86769237       0.37376509 </v>
   <v>       0.20209064       0.36769237       0.87376509 </v>
   <v>       0.53542398       0.36769237       0.87376509 </v>
   <v>       0.86875731       0.36769237       0.87376509 </v>
   <v>       0.20209064       0.86769237       0.87376509 </v>
   <v>       0.53542398       0.86769237       0.87376509 </v>
   <v>       0.86875731       0.86769237       0.87376509 </v>
   <v>       0.20209064       0.11769237       0.12623491 </v>
   <v>       0.53542398       0.11769237       0.12623491 </v>
   <v>       0.86875731       0.11769237       0.12623491 </v>
   <v>       0.20209064       0.61769237       0.12623491 </v>
   <v>       0.53542398       0.61769237       0.12623491 </v>
   <v>       0.86875731       0.61769237       0.12623491 </v>
   <v>       0.20209064       0.11769237       0.62623491 </v>
   <v>       0.53542398       0.11769237       0.62623491 </v>
   <v>       0.86875731       0.11769237       0.62623491 </v>
   <v>       0.20209064       0.61769237       0.62623491 </v>
   <v>       0.53542398       0.61769237       0.62623491 </v>
   <v>       0.86875731       0.61769237       0.62623491 </v>
   <v>       0.03542751       0.37011947       0.12029448 </v>
   <v>       0.36876084       0.37011947       0.12029448 </v>
   <v>       0.70209418       0.37011947       0.12029448 </v>
   <v>       0.03542751       0.87011947       0.12029448 </v>
   <v>       0.36876084       0.87011947       0.12029448 </v>
   <v>       0.70209418       0.87011947       0.12029448 </v>
   <v>       0.03542751       0.37011947       0.62029448 </v>
   <v>       0.36876084       0.37011947       0.62029448 </v>
   <v>       0.70209418       0.37011947       0.62029448 </v>
   <v>       0.03542751       0.87011947       0.62029448 </v>
   <v>       0.36876084       0.87011947       0.62029448 </v>
   <v>       0.70209418       0.87011947       0.62029448 </v>
   <v>       0.03542751       0.12011947       0.37970552 </v>
   <v>       0.36876084       0.12011947       0.37970552 </v>
   <v>       0.70209418       0.12011947       0.37970552 </v>
   <v>       0.03542751       0.62011947       0.37970552 </v>
   <v>       0.36876084       0.62011947       0.37970552 </v>
   <v>       0.70209418       0.62011947       0.37970552 </v>
   <v>       0.03542751       0.12011947       0.87970552 </v>
   <v>       0.36876084       0.12011947       0.87970552 </v>
   <v>       0.70209418       0.12011947       0.87970552 </v>
   <v>       0.03542751       0.62011947       0.87970552 </v>
   <v>       0.36876084       0.62011947       0.87970552 </v>
   <v>       0.70209418       0.62011947       0.87970552 </v>
   <v>       0.20209387       0.01225309       0.48003463 </v>
   <v>       0.53542720       0.01225309       0.48003463 </v>
   <v>       0.86876054       0.01225309       0.48003463 </v>
   <v>       0.20209387       0.51225309       0.48003463 </v>
   <v>       0.53542720       0.51225309       0.48003463 </v>
   <v>       0.86876054       0.51225309       0.48003463 </v>
   <v>       0.20209387       0.01225309       0.98003463 </v>
   <v>       0.53542720       0.01225309       0.98003463 </v>
   <v>       0.86876054       0.01225309       0.98003463 </v>
   <v>       0.20209387       0.51225309       0.98003463 </v>
   <v>       0.53542720       0.51225309       0.98003463 </v>
   <v>       0.86876054       0.51225309       0.98003463 </v>
   <v>       0.20209387       0.26225309       0.01996537 </v>
   <v>       0.53542720       0.26225309       0.01996537 </v>
   <v>       0.86876054       0.26225309       0.01996537 </v>
   <v>       0.20209387       0.76225309       0.01996537 </v>
   <v>       0.53542720       0.76225309       0.01996537 </v>
   <v>       0.86876054       0.76225309       0.01996537 </v>
   <v>       0.20209387       0.26225309       0.51996537 </v>
   <v>       0.53542720       0.26225309       0.51996537 </v>
   <v>       0.86876054       0.26225309       0.51996537 </v>
   <v>       0.20209387       0.76225309       0.51996537 </v>
   <v>       0.53542720       0.76225309       0.51996537 </v>
   <v>       0.86876054       0.76225309       0.51996537 </v>
  </varray>
 </structure>
</modeling>
