 224 224   0   0
  0.1357572E+02  0.1537960E-08  0.1537962E-08  0.1395899E-08  0.5000000E-15
  1.000000000000000E-004
  CAR 
 unknown system                          
     17.69613918    -54.42520077  301      5.25520804      1.00000000
    -54.425  0.0000E+00  0.0000E+00  0.0000E+00  0.0000E+00
    -54.185  0.0000E+00  0.0000E+00  0.0000E+00  0.0000E+00
    -53.944  0.0000E+00  0.0000E+00  0.0000E+00  0.0000E+00
    -53.704  0.0000E+00  0.0000E+00  0.0000E+00  0.0000E+00
    -53.464  0.0000E+00  0.0000E+00  0.0000E+00  0.0000E+00
    -53.223  0.0000E+00  0.0000E+00  0.0000E+00  0.0000E+00
    -52.983  0.0000E+00  0.0000E+00  0.0000E+00  0.0000E+00
    -52.742  0.0000E+00  0.0000E+00  0.0000E+00  0.0000E+00
    -52.502  0.0000E+00  0.0000E+00  0.0000E+00  0.0000E+00
    -52.262  0.0000E+00  0.0000E+00  0.0000E+00  0.0000E+00
    -52.021  0.0000E+00  0.0000E+00  0.0000E+00  0.0000E+00
    -51.781  0.0000E+00  0.0000E+00  0.0000E+00  0.0000E+00
    -51.540  0.0000E+00  0.0000E+00  0.0000E+00  0.0000E+00
    -51.300  0.8522E-03  0.0000E+00  0.2049E-03  0.0000E+00
    -51.060  0.2632E+03  0.0000E+00  0.6328E+02  0.0000E+00
    -50.819  0.2990E+01  0.0000E+00  0.6400E+02  0.0000E+00
    -50.579  0.0000E+00  0.0000E+00  0.6400E+02  0.0000E+00
    -50.338  0.0000E+00  0.0000E+00  0.6400E+02  0.0000E+00
    -50.098  0.0000E+00  0.0000E+00  0.6400E+02  0.0000E+00
    -49.858  0.5629E-06  0.0000E+00  0.6400E+02  0.0000E+00
    -49.617  0.4203E+03  0.0000E+00  0.1650E+03  0.0000E+00
    -49.377  0.1122E+03  0.0000E+00  0.1920E+03  0.0000E+00
    -49.136  0.0000E+00  0.0000E+00  0.1920E+03  0.0000E+00
    -48.896  0.0000E+00  0.0000E+00  0.1920E+03  0.0000E+00
    -48.655  0.0000E+00  0.0000E+00  0.1920E+03  0.0000E+00
    -48.415  0.0000E+00  0.0000E+00  0.1920E+03  0.0000E+00
    -48.175  0.0000E+00  0.0000E+00  0.1920E+03  0.0000E+00
    -47.934  0.0000E+00  0.0000E+00  0.1920E+03  0.0000E+00
    -47.694  0.0000E+00  0.0000E+00  0.1920E+03  0.0000E+00
    -47.453  0.0000E+00  0.0000E+00  0.1920E+03  0.0000E+00
    -47.213  0.0000E+00  0.0000E+00  0.1920E+03  0.0000E+00
    -46.973  0.0000E+00  0.0000E+00  0.1920E+03  0.0000E+00
    -46.732  0.0000E+00  0.0000E+00  0.1920E+03  0.0000E+00
    -46.492  0.0000E+00  0.4936E+00  0.1920E+03  0.1187E+00
    -46.251  0.0000E+00  0.2657E+03  0.1920E+03  0.6400E+02
    -46.011  0.0000E+00  0.4736E+01  0.1920E+03  0.6514E+02
    -45.771  0.0000E+00  0.5277E+03  0.1920E+03  0.1920E+03
    -45.530  0.0000E+00  0.2567E-02  0.1920E+03  0.1920E+03
    -45.290  0.0000E+00  0.0000E+00  0.1920E+03  0.1920E+03
    -45.049  0.0000E+00  0.0000E+00  0.1920E+03  0.1920E+03
    -44.809  0.0000E+00  0.0000E+00  0.1920E+03  0.1920E+03
    -44.569  0.0000E+00  0.0000E+00  0.1920E+03  0.1920E+03
    -44.328  0.0000E+00  0.0000E+00  0.1920E+03  0.1920E+03
    -44.088  0.0000E+00  0.0000E+00  0.1920E+03  0.1920E+03
    -43.847  0.0000E+00  0.0000E+00  0.1920E+03  0.1920E+03
    -43.607  0.0000E+00  0.0000E+00  0.1920E+03  0.1920E+03
    -43.367  0.0000E+00  0.0000E+00  0.1920E+03  0.1920E+03
    -43.126  0.0000E+00  0.0000E+00  0.1920E+03  0.1920E+03
    -42.886  0.0000E+00  0.0000E+00  0.1920E+03  0.1920E+03
    -42.645  0.0000E+00  0.0000E+00  0.1920E+03  0.1920E+03
    -42.405  0.0000E+00  0.0000E+00  0.1920E+03  0.1920E+03
    -42.165  0.0000E+00  0.0000E+00  0.1920E+03  0.1920E+03
    -41.924  0.0000E+00  0.0000E+00  0.1920E+03  0.1920E+03
    -41.684  0.0000E+00  0.0000E+00  0.1920E+03  0.1920E+03
    -41.443  0.0000E+00  0.0000E+00  0.1920E+03  0.1920E+03
    -41.203  0.0000E+00  0.0000E+00  0.1920E+03  0.1920E+03
    -40.963  0.0000E+00  0.0000E+00  0.1920E+03  0.1920E+03
    -40.722  0.0000E+00  0.0000E+00  0.1920E+03  0.1920E+03
    -40.482  0.0000E+00  0.0000E+00  0.1920E+03  0.1920E+03
    -40.241  0.0000E+00  0.0000E+00  0.1920E+03  0.1920E+03
    -40.001  0.0000E+00  0.0000E+00  0.1920E+03  0.1920E+03
    -39.761  0.1455E-01  0.1324E-01  0.1920E+03  0.1920E+03
    -39.520  0.2649E+03  0.2648E+03  0.2557E+03  0.2557E+03
    -39.280  0.1337E+01  0.1416E+01  0.2560E+03  0.2560E+03
    -39.039  0.0000E+00  0.0000E+00  0.2560E+03  0.2560E+03
    -38.799  0.0000E+00  0.0000E+00  0.2560E+03  0.2560E+03
    -38.559  0.0000E+00  0.0000E+00  0.2560E+03  0.2560E+03
    -38.318  0.0000E+00  0.0000E+00  0.2560E+03  0.2560E+03
    -38.078  0.0000E+00  0.0000E+00  0.2560E+03  0.2560E+03
    -37.837  0.0000E+00  0.0000E+00  0.2560E+03  0.2560E+03
    -37.597  0.0000E+00  0.0000E+00  0.2560E+03  0.2560E+03
    -37.356  0.0000E+00  0.0000E+00  0.2560E+03  0.2560E+03
    -37.116  0.0000E+00  0.0000E+00  0.2560E+03  0.2560E+03
    -36.876  0.0000E+00  0.0000E+00  0.2560E+03  0.2560E+03
    -36.635  0.0000E+00  0.0000E+00  0.2560E+03  0.2560E+03
    -36.395  0.0000E+00  0.0000E+00  0.2560E+03  0.2560E+03
    -36.154  0.0000E+00  0.0000E+00  0.2560E+03  0.2560E+03
    -35.914  0.0000E+00  0.0000E+00  0.2560E+03  0.2560E+03
    -35.674  0.0000E+00  0.0000E+00  0.2560E+03  0.2560E+03
    -35.433  0.0000E+00  0.0000E+00  0.2560E+03  0.2560E+03
    -35.193  0.0000E+00  0.0000E+00  0.2560E+03  0.2560E+03
    -34.952  0.0000E+00  0.0000E+00  0.2560E+03  0.2560E+03
    -34.712  0.0000E+00  0.0000E+00  0.2560E+03  0.2560E+03
    -34.472  0.0000E+00  0.0000E+00  0.2560E+03  0.2560E+03
    -34.231  0.0000E+00  0.0000E+00  0.2560E+03  0.2560E+03
    -33.991  0.0000E+00  0.0000E+00  0.2560E+03  0.2560E+03
    -33.750  0.0000E+00  0.0000E+00  0.2560E+03  0.2560E+03
    -33.510  0.0000E+00  0.0000E+00  0.2560E+03  0.2560E+03
    -33.270  0.0000E+00  0.0000E+00  0.2560E+03  0.2560E+03
    -33.029  0.0000E+00  0.0000E+00  0.2560E+03  0.2560E+03
    -32.789  0.0000E+00  0.0000E+00  0.2560E+03  0.2560E+03
    -32.548  0.0000E+00  0.0000E+00  0.2560E+03  0.2560E+03
    -32.308  0.0000E+00  0.0000E+00  0.2560E+03  0.2560E+03
    -32.068  0.0000E+00  0.0000E+00  0.2560E+03  0.2560E+03
    -31.827  0.0000E+00  0.0000E+00  0.2560E+03  0.2560E+03
    -31.587  0.0000E+00  0.0000E+00  0.2560E+03  0.2560E+03
    -31.346  0.0000E+00  0.0000E+00  0.2560E+03  0.2560E+03
    -31.106  0.0000E+00  0.0000E+00  0.2560E+03  0.2560E+03
    -30.866  0.0000E+00  0.0000E+00  0.2560E+03  0.2560E+03
    -30.625  0.0000E+00  0.0000E+00  0.2560E+03  0.2560E+03
    -30.385  0.0000E+00  0.0000E+00  0.2560E+03  0.2560E+03
    -30.144  0.0000E+00  0.0000E+00  0.2560E+03  0.2560E+03
    -29.904  0.0000E+00  0.0000E+00  0.2560E+03  0.2560E+03
    -29.664  0.0000E+00  0.0000E+00  0.2560E+03  0.2560E+03
    -29.423  0.0000E+00  0.0000E+00  0.2560E+03  0.2560E+03
    -29.183  0.0000E+00  0.0000E+00  0.2560E+03  0.2560E+03
    -28.942  0.0000E+00  0.0000E+00  0.2560E+03  0.2560E+03
    -28.702  0.0000E+00  0.0000E+00  0.2560E+03  0.2560E+03
    -28.462  0.0000E+00  0.0000E+00  0.2560E+03  0.2560E+03
    -28.221  0.0000E+00  0.0000E+00  0.2560E+03  0.2560E+03
    -27.981  0.0000E+00  0.0000E+00  0.2560E+03  0.2560E+03
    -27.740  0.0000E+00  0.0000E+00  0.2560E+03  0.2560E+03
    -27.500  0.0000E+00  0.0000E+00  0.2560E+03  0.2560E+03
    -27.259  0.0000E+00  0.0000E+00  0.2560E+03  0.2560E+03
    -27.019  0.0000E+00  0.0000E+00  0.2560E+03  0.2560E+03
    -26.779  0.0000E+00  0.0000E+00  0.2560E+03  0.2560E+03
    -26.538  0.0000E+00  0.0000E+00  0.2560E+03  0.2560E+03
    -26.298  0.0000E+00  0.0000E+00  0.2560E+03  0.2560E+03
    -26.057  0.0000E+00  0.0000E+00  0.2560E+03  0.2560E+03
    -25.817  0.0000E+00  0.0000E+00  0.2560E+03  0.2560E+03
    -25.577  0.0000E+00  0.0000E+00  0.2560E+03  0.2560E+03
    -25.336  0.0000E+00  0.0000E+00  0.2560E+03  0.2560E+03
    -25.096  0.0000E+00  0.0000E+00  0.2560E+03  0.2560E+03
    -24.855  0.0000E+00  0.0000E+00  0.2560E+03  0.2560E+03
    -24.615  0.0000E+00  0.0000E+00  0.2560E+03  0.2560E+03
    -24.375  0.0000E+00  0.0000E+00  0.2560E+03  0.2560E+03
    -24.134  0.0000E+00  0.0000E+00  0.2560E+03  0.2560E+03
    -23.894  0.0000E+00  0.0000E+00  0.2560E+03  0.2560E+03
    -23.653  0.0000E+00  0.0000E+00  0.2560E+03  0.2560E+03
    -23.413  0.0000E+00  0.0000E+00  0.2560E+03  0.2560E+03
    -23.173  0.0000E+00  0.0000E+00  0.2560E+03  0.2560E+03
    -22.932  0.0000E+00  0.0000E+00  0.2560E+03  0.2560E+03
    -22.692  0.0000E+00  0.0000E+00  0.2560E+03  0.2560E+03
    -22.451  0.0000E+00  0.0000E+00  0.2560E+03  0.2560E+03
    -22.211  0.0000E+00  0.0000E+00  0.2560E+03  0.2560E+03
    -21.971  0.0000E+00  0.0000E+00  0.2560E+03  0.2560E+03
    -21.730  0.0000E+00  0.0000E+00  0.2560E+03  0.2560E+03
    -21.490  0.0000E+00  0.0000E+00  0.2560E+03  0.2560E+03
    -21.249  0.0000E+00  0.0000E+00  0.2560E+03  0.2560E+03
    -21.009  0.0000E+00  0.0000E+00  0.2560E+03  0.2560E+03
    -20.769  0.0000E+00  0.0000E+00  0.2560E+03  0.2560E+03
    -20.528  0.0000E+00  0.0000E+00  0.2560E+03  0.2560E+03
    -20.288  0.0000E+00  0.0000E+00  0.2560E+03  0.2560E+03
    -20.047  0.0000E+00  0.0000E+00  0.2560E+03  0.2560E+03
    -19.807  0.0000E+00  0.0000E+00  0.2560E+03  0.2560E+03
    -19.567  0.0000E+00  0.0000E+00  0.2560E+03  0.2560E+03
    -19.326  0.0000E+00  0.0000E+00  0.2560E+03  0.2560E+03
    -19.086  0.0000E+00  0.0000E+00  0.2560E+03  0.2560E+03
    -18.845  0.0000E+00  0.0000E+00  0.2560E+03  0.2560E+03
    -18.605  0.0000E+00  0.0000E+00  0.2560E+03  0.2560E+03
    -18.365  0.0000E+00  0.0000E+00  0.2560E+03  0.2560E+03
    -18.124  0.0000E+00  0.0000E+00  0.2560E+03  0.2560E+03
    -17.884  0.0000E+00  0.0000E+00  0.2560E+03  0.2560E+03
    -17.643  0.0000E+00  0.0000E+00  0.2560E+03  0.2560E+03
    -17.403  0.0000E+00  0.0000E+00  0.2560E+03  0.2560E+03
    -17.163  0.0000E+00  0.0000E+00  0.2560E+03  0.2560E+03
    -16.922  0.0000E+00  0.0000E+00  0.2560E+03  0.2560E+03
    -16.682  0.0000E+00  0.0000E+00  0.2560E+03  0.2560E+03
    -16.441  0.0000E+00  0.0000E+00  0.2560E+03  0.2560E+03
    -16.201  0.0000E+00  0.0000E+00  0.2560E+03  0.2560E+03
    -15.960  0.0000E+00  0.0000E+00  0.2560E+03  0.2560E+03
    -15.720  0.0000E+00  0.0000E+00  0.2560E+03  0.2560E+03
    -15.480  0.0000E+00  0.0000E+00  0.2560E+03  0.2560E+03
    -15.239  0.0000E+00  0.0000E+00  0.2560E+03  0.2560E+03
    -14.999  0.0000E+00  0.0000E+00  0.2560E+03  0.2560E+03
    -14.758  0.0000E+00  0.0000E+00  0.2560E+03  0.2560E+03
    -14.518  0.0000E+00  0.0000E+00  0.2560E+03  0.2560E+03
    -14.278  0.0000E+00  0.0000E+00  0.2560E+03  0.2560E+03
    -14.037  0.0000E+00  0.0000E+00  0.2560E+03  0.2560E+03
    -13.797  0.0000E+00  0.0000E+00  0.2560E+03  0.2560E+03
    -13.556  0.0000E+00  0.0000E+00  0.2560E+03  0.2560E+03
    -13.316  0.0000E+00  0.0000E+00  0.2560E+03  0.2560E+03
    -13.076  0.0000E+00  0.0000E+00  0.2560E+03  0.2560E+03
    -12.835  0.7689E-01  0.0000E+00  0.2560E+03  0.2560E+03
    -12.595  0.1319E+03  0.1475E-02  0.2877E+03  0.2560E+03
    -12.354  0.1171E+01  0.1229E+03  0.2880E+03  0.2855E+03
    -12.114  0.0000E+00  0.1023E+02  0.2880E+03  0.2880E+03
    -11.874  0.0000E+00  0.0000E+00  0.2880E+03  0.2880E+03
    -11.633  0.0000E+00  0.0000E+00  0.2880E+03  0.2880E+03
    -11.393  0.0000E+00  0.0000E+00  0.2880E+03  0.2880E+03
    -11.152  0.0000E+00  0.0000E+00  0.2880E+03  0.2880E+03
    -10.912  0.0000E+00  0.0000E+00  0.2880E+03  0.2880E+03
    -10.672  0.0000E+00  0.0000E+00  0.2880E+03  0.2880E+03
    -10.431  0.0000E+00  0.0000E+00  0.2880E+03  0.2880E+03
    -10.191  0.0000E+00  0.0000E+00  0.2880E+03  0.2880E+03
     -9.950  0.0000E+00  0.0000E+00  0.2880E+03  0.2880E+03
     -9.710  0.0000E+00  0.0000E+00  0.2880E+03  0.2880E+03
     -9.470  0.0000E+00  0.0000E+00  0.2880E+03  0.2880E+03
     -9.229  0.0000E+00  0.0000E+00  0.2880E+03  0.2880E+03
     -8.989  0.0000E+00  0.0000E+00  0.2880E+03  0.2880E+03
     -8.748  0.0000E+00  0.0000E+00  0.2880E+03  0.2880E+03
     -8.508  0.0000E+00  0.0000E+00  0.2880E+03  0.2880E+03
     -8.268  0.0000E+00  0.0000E+00  0.2880E+03  0.2880E+03
     -8.027  0.3372E-10  0.0000E+00  0.2880E+03  0.2880E+03
     -7.787  0.8733E+00  0.2895E-07  0.2882E+03  0.2880E+03
     -7.546  0.1873E+02  0.2710E+01  0.2927E+03  0.2887E+03
     -7.306  0.2802E+02  0.2214E+02  0.2995E+03  0.2940E+03
     -7.066  0.5317E+02  0.3091E+02  0.3122E+03  0.3014E+03
     -6.825  0.1469E+03  0.4880E+02  0.3475E+03  0.3131E+03
     -6.585  0.1855E+02  0.1388E+03  0.3520E+03  0.3465E+03
     -6.344  0.0000E+00  0.2285E+02  0.3520E+03  0.3520E+03
     -6.104  0.0000E+00  0.1524E-04  0.3520E+03  0.3520E+03
     -5.863  0.0000E+00  0.0000E+00  0.3520E+03  0.3520E+03
     -5.623  0.0000E+00  0.0000E+00  0.3520E+03  0.3520E+03
     -5.383  0.0000E+00  0.0000E+00  0.3520E+03  0.3520E+03
     -5.142  0.0000E+00  0.0000E+00  0.3520E+03  0.3520E+03
     -4.902  0.0000E+00  0.0000E+00  0.3520E+03  0.3520E+03
     -4.661  0.0000E+00  0.0000E+00  0.3520E+03  0.3520E+03
     -4.421  0.0000E+00  0.0000E+00  0.3520E+03  0.3520E+03
     -4.181  0.0000E+00  0.0000E+00  0.3520E+03  0.3520E+03
     -3.940  0.0000E+00  0.0000E+00  0.3520E+03  0.3520E+03
     -3.700  0.0000E+00  0.0000E+00  0.3520E+03  0.3520E+03
     -3.459  0.0000E+00  0.0000E+00  0.3520E+03  0.3520E+03
     -3.219  0.0000E+00  0.0000E+00  0.3520E+03  0.3520E+03
     -2.979  0.0000E+00  0.0000E+00  0.3520E+03  0.3520E+03
     -2.738  0.0000E+00  0.0000E+00  0.3520E+03  0.3520E+03
     -2.498  0.0000E+00  0.0000E+00  0.3520E+03  0.3520E+03
     -2.257  0.0000E+00  0.0000E+00  0.3520E+03  0.3520E+03
     -2.017  0.0000E+00  0.0000E+00  0.3520E+03  0.3520E+03
     -1.777  0.3857E-12  0.0000E+00  0.3520E+03  0.3520E+03
     -1.536  0.1177E+01  0.0000E+00  0.3523E+03  0.3520E+03
     -1.296  0.9936E+02  0.0000E+00  0.3762E+03  0.3520E+03
     -1.055  0.3258E+02  0.0000E+00  0.3840E+03  0.3520E+03
     -0.815  0.1220E+02  0.0000E+00  0.3869E+03  0.3520E+03
     -0.575  0.8877E+02  0.6383E-05  0.4083E+03  0.3520E+03
     -0.334  0.2225E+03  0.3950E+01  0.4618E+03  0.3529E+03
     -0.094  0.2020E+03  0.2476E+02  0.5103E+03  0.3589E+03
      0.147  0.1772E+03  0.4089E+02  0.5529E+03  0.3687E+03
      0.387  0.1520E+03  0.4220E+02  0.5895E+03  0.3789E+03
      0.627  0.1203E+03  0.7165E+02  0.6184E+03  0.3961E+03
      0.868  0.5474E+02  0.6087E+02  0.6316E+03  0.4107E+03
      1.108  0.6905E+02  0.6507E+02  0.6482E+03  0.4264E+03
      1.349  0.7383E+02  0.6768E+02  0.6659E+03  0.4426E+03
      1.589  0.6799E+02  0.7762E+02  0.6822E+03  0.4613E+03
      1.829  0.1098E+03  0.1108E+03  0.7086E+03  0.4879E+03
      2.070  0.2138E+03  0.6282E+02  0.7601E+03  0.5030E+03
      2.310  0.1402E+03  0.3757E+02  0.7938E+03  0.5121E+03
      2.551  0.8469E+02  0.7716E+02  0.8141E+03  0.5306E+03
      2.791  0.6883E+02  0.1039E+03  0.8307E+03  0.5556E+03
      3.031  0.3544E+02  0.7078E+02  0.8392E+03  0.5726E+03
      3.272  0.4023E+02  0.1310E+03  0.8489E+03  0.6041E+03
      3.512  0.5196E+02  0.1181E+03  0.8613E+03  0.6325E+03
      3.753  0.6739E+02  0.2516E+02  0.8775E+03  0.6385E+03
      3.993  0.7930E+02  0.4350E+02  0.8966E+03  0.6490E+03
      4.233  0.8016E+02  0.1783E+03  0.9159E+03  0.6919E+03
      4.474  0.7605E+02  0.4871E+02  0.9342E+03  0.7036E+03
      4.714  0.2875E+02  0.1730E+01  0.9411E+03  0.7040E+03
      4.955  0.6475E+02  0.0000E+00  0.9566E+03  0.7040E+03
      5.195  0.1396E+02  0.0000E+00  0.9600E+03  0.7040E+03
      5.436  0.0000E+00  0.0000E+00  0.9600E+03  0.7040E+03
      5.676  0.0000E+00  0.0000E+00  0.9600E+03  0.7040E+03
      5.916  0.0000E+00  0.0000E+00  0.9600E+03  0.7040E+03
      6.157  0.0000E+00  0.6609E-07  0.9600E+03  0.7040E+03
      6.397  0.0000E+00  0.1019E+01  0.9600E+03  0.7042E+03
      6.638  0.0000E+00  0.1006E+02  0.9600E+03  0.7067E+03
      6.878  0.0000E+00  0.2626E+02  0.9600E+03  0.7130E+03
      7.118  0.2886E-16  0.6551E+02  0.9600E+03  0.7287E+03
      7.359  0.5263E-01  0.1112E+03  0.9600E+03  0.7555E+03
      7.599  0.1507E+01  0.1393E+03  0.9604E+03  0.7889E+03
      7.840  0.5028E+01  0.1183E+03  0.9616E+03  0.8174E+03
      8.080  0.7079E+01  0.1782E+03  0.9633E+03  0.8602E+03
      8.320  0.9314E+01  0.1467E+03  0.9655E+03  0.8955E+03
      8.561  0.1250E+02  0.6150E+02  0.9685E+03  0.9103E+03
      8.801  0.1429E+02  0.8269E+02  0.9720E+03  0.9301E+03
      9.042  0.2721E+02  0.7323E+02  0.9785E+03  0.9477E+03
      9.282  0.3337E+02  0.5737E+02  0.9865E+03  0.9615E+03
      9.522  0.3500E+02  0.2341E+02  0.9949E+03  0.9672E+03
      9.763  0.5355E+02  0.3405E+02  0.1008E+04  0.9754E+03
     10.003  0.5106E+02  0.2266E+02  0.1020E+04  0.9808E+03
     10.244  0.3418E+02  0.3853E+02  0.1028E+04  0.9901E+03
     10.484  0.2144E+02  0.4363E+02  0.1033E+04  0.1001E+04
     10.724  0.4556E+02  0.6077E+02  0.1044E+04  0.1015E+04
     10.965  0.3308E+02  0.4370E+02  0.1052E+04  0.1026E+04
     11.205  0.4327E+02  0.4024E+02  0.1063E+04  0.1035E+04
     11.446  0.7792E+02  0.3440E+02  0.1082E+04  0.1044E+04
     11.686  0.4307E+02  0.4376E+02  0.1092E+04  0.1054E+04
     11.926  0.6444E+02  0.5158E+02  0.1107E+04  0.1067E+04
     12.167  0.6665E+02  0.5770E+02  0.1123E+04  0.1080E+04
     12.407  0.6939E+02  0.5329E+02  0.1140E+04  0.1093E+04
     12.648  0.6085E+02  0.6676E+02  0.1155E+04  0.1109E+04
     12.888  0.5274E+02  0.7976E+02  0.1167E+04  0.1128E+04
     13.128  0.5871E+02  0.6484E+02  0.1181E+04  0.1144E+04
     13.369  0.4845E+02  0.6612E+02  0.1193E+04  0.1160E+04
     13.609  0.4036E+02  0.6468E+02  0.1203E+04  0.1175E+04
     13.850  0.1893E+02  0.5733E+02  0.1207E+04  0.1189E+04
     14.090  0.2593E+01  0.5312E+02  0.1208E+04  0.1202E+04
     14.330  0.0000E+00  0.2166E+02  0.1208E+04  0.1207E+04
     14.571  0.0000E+00  0.3196E+01  0.1208E+04  0.1208E+04
     14.811  0.0000E+00  0.3929E-05  0.1208E+04  0.1208E+04
     15.052  0.0000E+00  0.0000E+00  0.1208E+04  0.1208E+04
     15.292  0.0000E+00  0.0000E+00  0.1208E+04  0.1208E+04
     15.532  0.0000E+00  0.0000E+00  0.1208E+04  0.1208E+04
     15.773  0.0000E+00  0.0000E+00  0.1208E+04  0.1208E+04
     16.013  0.0000E+00  0.0000E+00  0.1208E+04  0.1208E+04
     16.254  0.0000E+00  0.0000E+00  0.1208E+04  0.1208E+04
     16.494  0.0000E+00  0.0000E+00  0.1208E+04  0.1208E+04
     16.735  0.0000E+00  0.0000E+00  0.1208E+04  0.1208E+04
     16.975  0.0000E+00  0.0000E+00  0.1208E+04  0.1208E+04
     17.215  0.0000E+00  0.0000E+00  0.1208E+04  0.1208E+04
     17.456  0.0000E+00  0.0000E+00  0.1208E+04  0.1208E+04
     17.696  0.0000E+00  0.0000E+00  0.1208E+04  0.1208E+04
