  224  224    1    2
  0.1357572E+02  0.1537960E-08  0.1537962E-08  0.1395899E-08  0.5000000E-15
  1.000000000000000E-004
  CAR 
 unknown system                          
   1664      8   1208
 
  0.0000000E+00  0.0000000E+00  0.0000000E+00  0.1250000E+00
    1      -51.146956    -46.395395   1.000000   1.000000
    2      -51.141770    -46.391204   1.000000   1.000000
    3      -51.141588    -46.390836   1.000000   1.000000
    4      -51.141561    -46.390771   1.000000   1.000000
    5      -51.141424    -46.390672   1.000000   1.000000
    6      -51.141342    -46.390628   1.000000   1.000000
    7      -51.141326    -46.390513   1.000000   1.000000
    8      -51.141249    -46.390455   1.000000   1.000000
    9      -51.141162    -46.390300   1.000000   1.000000
   10      -51.141079    -46.390251   1.000000   1.000000
   11      -51.141039    -46.390137   1.000000   1.000000
   12      -51.140992    -46.390114   1.000000   1.000000
   13      -51.140939    -46.390044   1.000000   1.000000
   14      -51.140881    -46.389978   1.000000   1.000000
   15      -51.140874    -46.389969   1.000000   1.000000
   16      -51.140845    -46.389911   1.000000   1.000000
   17      -51.140811    -46.389897   1.000000   1.000000
   18      -51.140792    -46.389840   1.000000   1.000000
   19      -51.140761    -46.389783   1.000000   1.000000
   20      -51.140708    -46.389721   1.000000   1.000000
   21      -51.140672    -46.389701   1.000000   1.000000
   22      -51.140629    -46.389643   1.000000   1.000000
   23      -51.140607    -46.389607   1.000000   1.000000
   24      -51.140582    -46.389588   1.000000   1.000000
   25      -51.140570    -46.389580   1.000000   1.000000
   26      -51.140557    -46.389535   1.000000   1.000000
   27      -51.140529    -46.389512   1.000000   1.000000
   28      -51.140488    -46.389502   1.000000   1.000000
   29      -51.140425    -46.389345   1.000000   1.000000
   30      -51.140385    -46.389307   1.000000   1.000000
   31      -51.140349    -46.389229   1.000000   1.000000
   32      -51.140311    -46.389172   1.000000   1.000000
   33      -51.140268    -46.389049   1.000000   1.000000
   34      -51.140137    -46.389024   1.000000   1.000000
   35      -51.140107    -46.388866   1.000000   1.000000
   36      -51.140081    -46.388848   1.000000   1.000000
   37      -51.140068    -46.388834   1.000000   1.000000
   38      -51.140047    -46.388811   1.000000   1.000000
   39      -51.140037    -46.388804   1.000000   1.000000
   40      -51.140016    -46.388781   1.000000   1.000000
   41      -51.140012    -46.388758   1.000000   1.000000
   42      -51.139981    -46.388745   1.000000   1.000000
   43      -51.139963    -46.388717   1.000000   1.000000
   44      -51.139920    -46.388654   1.000000   1.000000
   45      -51.139894    -46.388630   1.000000   1.000000
   46      -51.139862    -46.388585   1.000000   1.000000
   47      -51.139803    -46.388550   1.000000   1.000000
   48      -51.139760    -46.388499   1.000000   1.000000
   49      -51.139724    -46.388467   1.000000   1.000000
   50      -51.139673    -46.388391   1.000000   1.000000
   51      -51.139638    -46.388363   1.000000   1.000000
   52      -51.139601    -46.388283   1.000000   1.000000
   53      -51.139571    -46.388268   1.000000   1.000000
   54      -51.139526    -46.388172   1.000000   1.000000
   55      -51.139453    -46.388090   1.000000   1.000000
   56      -51.139409    -46.388023   1.000000   1.000000
   57      -51.139287    -46.387934   1.000000   1.000000
   58      -51.139276    -46.387827   1.000000   1.000000
   59      -51.139121    -46.387739   1.000000   1.000000
   60      -51.139060    -46.387573   1.000000   1.000000
   61      -51.138420    -46.387109   1.000000   1.000000
   62      -51.138359    -46.387006   1.000000   1.000000
   63      -51.137447    -46.386215   1.000000   1.000000
   64      -51.136486    -46.385389   1.000000   1.000000
   65      -49.652529    -45.932959   1.000000   1.000000
   66      -49.650210    -45.932639   1.000000   1.000000
   67      -49.648125    -45.929341   1.000000   1.000000
   68      -49.647825    -45.929300   1.000000   1.000000
   69      -49.647752    -45.929105   1.000000   1.000000
   70      -49.647685    -45.929051   1.000000   1.000000
   71      -49.647539    -45.929021   1.000000   1.000000
   72      -49.647467    -45.928983   1.000000   1.000000
   73      -49.647446    -45.928886   1.000000   1.000000
   74      -49.647416    -45.928806   1.000000   1.000000
   75      -49.647401    -45.928784   1.000000   1.000000
   76      -49.647356    -45.928741   1.000000   1.000000
   77      -49.647321    -45.928693   1.000000   1.000000
   78      -49.647298    -45.928670   1.000000   1.000000
   79      -49.647277    -45.928646   1.000000   1.000000
   80      -49.647270    -45.928644   1.000000   1.000000
   81      -49.647189    -45.928584   1.000000   1.000000
   82      -49.647174    -45.928554   1.000000   1.000000
   83      -49.647120    -45.928492   1.000000   1.000000
   84      -49.647084    -45.928453   1.000000   1.000000
   85      -49.647067    -45.928418   1.000000   1.000000
   86      -49.647041    -45.928410   1.000000   1.000000
   87      -49.647029    -45.928392   1.000000   1.000000
   88      -49.646997    -45.928329   1.000000   1.000000
   89      -49.646962    -45.928325   1.000000   1.000000
   90      -49.646891    -45.928294   1.000000   1.000000
   91      -49.646849    -45.928262   1.000000   1.000000
   92      -49.646806    -45.928246   1.000000   1.000000
   93      -49.646802    -45.928227   1.000000   1.000000
   94      -49.646739    -45.928186   1.000000   1.000000
   95      -49.646674    -45.928178   1.000000   1.000000
   96      -49.646671    -45.928164   1.000000   1.000000
   97      -49.646661    -45.928088   1.000000   1.000000
   98      -49.646573    -45.928042   1.000000   1.000000
   99      -49.646551    -45.928035   1.000000   1.000000
  100      -49.646532    -45.927994   1.000000   1.000000
  101      -49.646512    -45.927946   1.000000   1.000000
  102      -49.646489    -45.927878   1.000000   1.000000
  103      -49.646406    -45.927859   1.000000   1.000000
  104      -49.646393    -45.927817   1.000000   1.000000
  105      -49.646355    -45.927721   1.000000   1.000000
  106      -49.646311    -45.927694   1.000000   1.000000
  107      -49.646259    -45.927686   1.000000   1.000000
  108      -49.646203    -45.927662   1.000000   1.000000
  109      -49.646176    -45.927644   1.000000   1.000000
  110      -49.646120    -45.927618   1.000000   1.000000
  111      -49.646089    -45.927600   1.000000   1.000000
  112      -49.646063    -45.927557   1.000000   1.000000
  113      -49.646055    -45.927475   1.000000   1.000000
  114      -49.645959    -45.927464   1.000000   1.000000
  115      -49.645881    -45.927405   1.000000   1.000000
  116      -49.645871    -45.927391   1.000000   1.000000
  117      -49.645825    -45.927361   1.000000   1.000000
  118      -49.645803    -45.927333   1.000000   1.000000
  119      -49.645802    -45.927279   1.000000   1.000000
  120      -49.645760    -45.927268   1.000000   1.000000
  121      -49.645688    -45.927243   1.000000   1.000000
  122      -49.645645    -45.927219   1.000000   1.000000
  123      -49.645639    -45.927197   1.000000   1.000000
  124      -49.645598    -45.927186   1.000000   1.000000
  125      -49.645582    -45.927172   1.000000   1.000000
  126      -49.645562    -45.927145   1.000000   1.000000
  127      -49.645540    -45.927139   1.000000   1.000000
  128      -49.645512    -45.927084   1.000000   1.000000
  129      -49.645482    -45.927067   1.000000   1.000000
  130      -49.645469    -45.927031   1.000000   1.000000
  131      -49.645438    -45.926993   1.000000   1.000000
  132      -49.645413    -45.926968   1.000000   1.000000
  133      -49.645400    -45.926956   1.000000   1.000000
  134      -49.645338    -45.926949   1.000000   1.000000
  135      -49.645308    -45.926906   1.000000   1.000000
  136      -49.645281    -45.926903   1.000000   1.000000
  137      -49.645269    -45.926879   1.000000   1.000000
  138      -49.645251    -45.926837   1.000000   1.000000
  139      -49.645205    -45.926821   1.000000   1.000000
  140      -49.645177    -45.926793   1.000000   1.000000
  141      -49.645164    -45.926765   1.000000   1.000000
  142      -49.645100    -45.926720   1.000000   1.000000
  143      -49.645086    -45.926711   1.000000   1.000000
  144      -49.645064    -45.926693   1.000000   1.000000
  145      -49.645044    -45.926678   1.000000   1.000000
  146      -49.644960    -45.926675   1.000000   1.000000
  147      -49.644954    -45.926625   1.000000   1.000000
  148      -49.644928    -45.926615   1.000000   1.000000
  149      -49.644909    -45.926564   1.000000   1.000000
  150      -49.644879    -45.926557   1.000000   1.000000
  151      -49.644875    -45.926519   1.000000   1.000000
  152      -49.644864    -45.926494   1.000000   1.000000
  153      -49.644799    -45.926469   1.000000   1.000000
  154      -49.644762    -45.926452   1.000000   1.000000
  155      -49.644709    -45.926438   1.000000   1.000000
  156      -49.644643    -45.926407   1.000000   1.000000
  157      -49.644632    -45.926379   1.000000   1.000000
  158      -49.644599    -45.926328   1.000000   1.000000
  159      -49.644599    -45.926315   1.000000   1.000000
  160      -49.644553    -45.926292   1.000000   1.000000
  161      -49.644499    -45.926260   1.000000   1.000000
  162      -49.644479    -45.926234   1.000000   1.000000
  163      -49.644478    -45.926211   1.000000   1.000000
  164      -49.644418    -45.926190   1.000000   1.000000
  165      -49.644394    -45.926157   1.000000   1.000000
  166      -49.644374    -45.926135   1.000000   1.000000
  167      -49.644315    -45.926093   1.000000   1.000000
  168      -49.644305    -45.926057   1.000000   1.000000
  169      -49.644239    -45.926032   1.000000   1.000000
  170      -49.644168    -45.925999   1.000000   1.000000
  171      -49.644153    -45.925966   1.000000   1.000000
  172      -49.644093    -45.925929   1.000000   1.000000
  173      -49.644083    -45.925857   1.000000   1.000000
  174      -49.644032    -45.925851   1.000000   1.000000
  175      -49.643976    -45.925827   1.000000   1.000000
  176      -49.643931    -45.925748   1.000000   1.000000
  177      -49.643892    -45.925695   1.000000   1.000000
  178      -49.643802    -45.925682   1.000000   1.000000
  179      -49.643791    -45.925607   1.000000   1.000000
  180      -49.643752    -45.925580   1.000000   1.000000
  181      -49.643708    -45.925548   1.000000   1.000000
  182      -49.643636    -45.925522   1.000000   1.000000
  183      -49.643500    -45.925443   1.000000   1.000000
  184      -49.643499    -45.925308   1.000000   1.000000
  185      -49.643487    -45.925271   1.000000   1.000000
  186      -49.643378    -45.925053   1.000000   1.000000
  187      -49.643106    -45.924902   1.000000   1.000000
  188      -49.643020    -45.924741   1.000000   1.000000
  189      -49.642809    -45.924258   1.000000   1.000000
  190      -49.642639    -45.924101   1.000000   1.000000
  191      -49.641799    -45.923784   1.000000   1.000000
  192      -49.641180    -45.923404   1.000000   1.000000
  193      -39.642810    -39.641904   1.000000   1.000000
  194      -39.640644    -39.639728   1.000000   1.000000
  195      -39.636350    -39.635480   1.000000   1.000000
  196      -39.634292    -39.633425   1.000000   1.000000
  197      -39.634203    -39.633335   1.000000   1.000000
  198      -39.633584    -39.632712   1.000000   1.000000
  199      -39.633252    -39.632380   1.000000   1.000000
  200      -39.633129    -39.632258   1.000000   1.000000
  201      -39.633024    -39.632153   1.000000   1.000000
  202      -39.632468    -39.631599   1.000000   1.000000
  203      -39.629114    -39.628278   1.000000   1.000000
  204      -39.629032    -39.628198   1.000000   1.000000
  205      -39.628857    -39.628019   1.000000   1.000000
  206      -39.627854    -39.627017   1.000000   1.000000
  207      -39.627517    -39.626680   1.000000   1.000000
  208      -39.627362    -39.626525   1.000000   1.000000
  209      -39.627252    -39.626417   1.000000   1.000000
  210      -39.626926    -39.626091   1.000000   1.000000
  211      -39.619611    -39.618847   1.000000   1.000000
  212      -39.619495    -39.618728   1.000000   1.000000
  213      -39.617768    -39.616998   1.000000   1.000000
  214      -39.616772    -39.615995   1.000000   1.000000
  215      -39.615940    -39.615168   1.000000   1.000000
  216      -39.615888    -39.615116   1.000000   1.000000
  217      -39.615810    -39.615035   1.000000   1.000000
  218      -39.615720    -39.614946   1.000000   1.000000
  219      -39.615392    -39.614615   1.000000   1.000000
  220      -39.615351    -39.614582   1.000000   1.000000
  221      -39.615322    -39.614545   1.000000   1.000000
  222      -39.615307    -39.614537   1.000000   1.000000
  223      -39.615271    -39.614502   1.000000   1.000000
  224      -39.615199    -39.614428   1.000000   1.000000
  225      -39.615126    -39.614358   1.000000   1.000000
  226      -39.615017    -39.614251   1.000000   1.000000
  227      -39.615007    -39.614240   1.000000   1.000000
  228      -39.614976    -39.614210   1.000000   1.000000
  229      -39.614741    -39.613973   1.000000   1.000000
  230      -39.614695    -39.613928   1.000000   1.000000
  231      -39.614634    -39.613867   1.000000   1.000000
  232      -39.614586    -39.613821   1.000000   1.000000
  233      -39.614530    -39.613770   1.000000   1.000000
  234      -39.614473    -39.613711   1.000000   1.000000
  235      -39.614423    -39.613664   1.000000   1.000000
  236      -39.614291    -39.613527   1.000000   1.000000
  237      -39.613429    -39.612668   1.000000   1.000000
  238      -39.612700    -39.611945   1.000000   1.000000
  239      -39.606279    -39.605563   1.000000   1.000000
  240      -39.604557    -39.603838   1.000000   1.000000
  241      -39.604537    -39.603818   1.000000   1.000000
  242      -39.603914    -39.603197   1.000000   1.000000
  243      -39.603561    -39.602843   1.000000   1.000000
  244      -39.603430    -39.602712   1.000000   1.000000
  245      -39.603268    -39.602551   1.000000   1.000000
  246      -39.603177    -39.602461   1.000000   1.000000
  247      -39.601162    -39.600455   1.000000   1.000000
  248      -39.599938    -39.599233   1.000000   1.000000
  249      -39.599874    -39.599169   1.000000   1.000000
  250      -39.599706    -39.599001   1.000000   1.000000
  251      -39.599403    -39.598699   1.000000   1.000000
  252      -39.599214    -39.598509   1.000000   1.000000
  253      -39.599012    -39.598309   1.000000   1.000000
  254      -39.598446    -39.597744   1.000000   1.000000
  255      -39.593866    -39.593184   1.000000   1.000000
  256      -39.592681    -39.592001   1.000000   1.000000
  257      -12.751328    -12.471265   1.000000   1.000000
  258      -12.746771    -12.467296   1.000000   1.000000
  259      -12.730436    -12.449656   1.000000   1.000000
  260      -12.719609    -12.439869   1.000000   1.000000
  261      -12.719482    -12.439747   1.000000   1.000000
  262      -12.719408    -12.439667   1.000000   1.000000
  263      -12.719240    -12.439479   1.000000   1.000000
  264      -12.718964    -12.439202   1.000000   1.000000
  265      -12.718843    -12.439090   1.000000   1.000000
  266      -12.718538    -12.438785   1.000000   1.000000
  267      -12.703137    -12.422890   1.000000   1.000000
  268      -12.697153    -12.416993   1.000000   1.000000
  269      -12.696223    -12.416242   1.000000   1.000000
  270      -12.695061    -12.415467   1.000000   1.000000
  271      -12.694348    -12.414734   1.000000   1.000000
  272      -12.694307    -12.414694   1.000000   1.000000
  273      -12.693138    -12.413700   1.000000   1.000000
  274      -12.692334    -12.413246   1.000000   1.000000
  275      -12.691792    -12.412127   1.000000   1.000000
  276      -12.691536    -12.411526   1.000000   1.000000
  277      -12.690799    -12.410763   1.000000   1.000000
  278      -12.690735    -12.410721   1.000000   1.000000
  279      -12.675607    -12.395631   1.000000   1.000000
  280      -12.672678    -12.392664   1.000000   1.000000
  281      -12.672576    -12.392576   1.000000   1.000000
  282      -12.672488    -12.392485   1.000000   1.000000
  283      -12.668585    -12.389452   1.000000   1.000000
  284      -12.667605    -12.388715   1.000000   1.000000
  285      -12.667450    -12.388556   1.000000   1.000000
  286      -12.667362    -12.388459   1.000000   1.000000
  287      -12.654891    -12.374944   1.000000   1.000000
  288      -12.644105    -12.366332   1.000000   1.000000
  289       -7.799824     -7.598837   1.000000   1.000000
  290       -7.748036     -7.551320   1.000000   1.000000
  291       -7.505476     -7.319217   1.000000   1.000000
  292       -7.505430     -7.319163   1.000000   1.000000
  293       -7.505304     -7.319049   1.000000   1.000000
  294       -7.504916     -7.318452   1.000000   1.000000
  295       -7.501073     -7.308931   1.000000   1.000000
  296       -7.500951     -7.308826   1.000000   1.000000
  297       -7.500875     -7.308737   1.000000   1.000000
  298       -7.499535     -7.307701   1.000000   1.000000
  299       -7.315159     -7.117706   1.000000   1.000000
  300       -7.314795     -7.117357   1.000000   1.000000
  301       -7.297185     -7.093891   1.000000   1.000000
  302       -7.297114     -7.093830   1.000000   1.000000
  303       -7.296504     -7.093228   1.000000   1.000000
  304       -7.295618     -7.092404   1.000000   1.000000
  305       -7.269228     -7.061931   1.000000   1.000000
  306       -7.268775     -7.061518   1.000000   1.000000
  307       -7.088538     -6.894115   1.000000   1.000000
  308       -7.084915     -6.894103   1.000000   1.000000
  309       -7.084883     -6.893604   1.000000   1.000000
  310       -7.084411     -6.892870   1.000000   1.000000
  311       -7.083567     -6.796621   1.000000   1.000000
  312       -7.046395     -6.783674   1.000000   1.000000
  313       -7.000741     -6.768318   1.000000   1.000000
  314       -7.000052     -6.768178   1.000000   1.000000
  315       -6.999801     -6.767681   1.000000   1.000000
  316       -6.999727     -6.767386   1.000000   1.000000
  317       -6.999666     -6.766946   1.000000   1.000000
  318       -6.999595     -6.766348   1.000000   1.000000
  319       -6.999543     -6.766116   1.000000   1.000000
  320       -6.997954     -6.766002   1.000000   1.000000
  321       -6.994287     -6.765980   1.000000   1.000000
  322       -6.994223     -6.765851   1.000000   1.000000
  323       -6.994115     -6.765802   1.000000   1.000000
  324       -6.992906     -6.763616   1.000000   1.000000
  325       -6.956017     -6.745023   1.000000   1.000000
  326       -6.955991     -6.744937   1.000000   1.000000
  327       -6.955522     -6.744822   1.000000   1.000000
  328       -6.954702     -6.743991   1.000000   1.000000
  329       -6.948344     -6.697487   1.000000   1.000000
  330       -6.947876     -6.697179   1.000000   1.000000
  331       -6.928697     -6.689163   1.000000   1.000000
  332       -6.928652     -6.689113   1.000000   1.000000
  333       -6.928552     -6.689012   1.000000   1.000000
  334       -6.927662     -6.688207   1.000000   1.000000
  335       -6.911577     -6.640067   1.000000   1.000000
  336       -6.910623     -6.639286   1.000000   1.000000
  337       -6.885983     -6.639122   1.000000   1.000000
  338       -6.885963     -6.639056   1.000000   1.000000
  339       -6.885368     -6.638921   1.000000   1.000000
  340       -6.884637     -6.638910   1.000000   1.000000
  341       -6.877678     -6.638805   1.000000   1.000000
  342       -6.877068     -6.638709   1.000000   1.000000
  343       -6.876845     -6.638607   1.000000   1.000000
  344       -6.876760     -6.638468   1.000000   1.000000
  345       -6.876713     -6.637848   1.000000   1.000000
  346       -6.876589     -6.635675   1.000000   1.000000
  347       -6.876523     -6.628290   1.000000   1.000000
  348       -6.873997     -6.627225   1.000000   1.000000
  349       -6.832610     -6.586651   1.000000   1.000000
  350       -6.832076     -6.586192   1.000000   1.000000
  351       -6.794498     -6.499325   1.000000   1.000000
  352       -6.793511     -6.498404   1.000000   1.000000
  353       -1.526074     -0.415747   1.000000   1.000000
  354       -1.470654     -0.414702   1.000000   1.000000
  355       -1.467669     -0.414267   1.000000   1.000000
  356       -1.467584     -0.414132   1.000000   1.000000
  357       -1.467555      0.023837   1.000000   1.000000
  358       -1.461669      0.026364   1.000000   1.000000
  359       -1.460338      0.026439   1.000000   1.000000
  360       -1.460191      0.026608   1.000000   1.000000
  361       -1.460057      0.035336   1.000000   1.000000
  362       -1.422492      0.037693   1.000000   1.000000
  363       -1.421302      0.037867   1.000000   1.000000
  364       -1.385171      0.037986   1.000000   1.000000
  365       -1.382912      0.038151   1.000000   1.000000
  366       -1.382564      0.038429   1.000000   1.000000
  367       -1.382524      0.038530   1.000000   1.000000
  368       -1.337297      0.038680   1.000000   1.000000
  369       -1.332679      0.101980   1.000000   1.000000
  370       -1.332550      0.102998   1.000000   1.000000
  371       -1.332512      0.205517   1.000000   1.000000
  372       -1.332491      0.207344   1.000000   1.000000
  373       -1.332363      0.207846   1.000000   1.000000
  374       -1.332158      0.207880   1.000000   1.000000
  375       -1.331994      0.303608   1.000000   1.000000
  376       -1.294535      0.390356   1.000000   1.000000
  377       -1.292480      0.392605   1.000000   1.000000
  378       -1.292389      0.392682   1.000000   1.000000
  379       -1.292356      0.392837   1.000000   1.000000
  380       -1.258082      0.489726   1.000000   1.000000
  381       -1.256494      0.491002   1.000000   1.000000
  382       -1.233217      0.497148   1.000000   1.000000
  383       -1.232107      0.497183   1.000000   1.000000
  384       -1.220847      0.497781   1.000000   1.000000
  385       -0.823182      0.498310   1.000000   1.000000
  386       -0.822693      0.510570   1.000000   1.000000
  387       -0.822667      0.510611   1.000000   1.000000
  388       -0.822588      0.531029   1.000000   1.000000
  389       -0.723022      0.531123   1.000000   1.000000
  390       -0.722495      0.531643   1.000000   1.000000
  391       -0.699567      0.531730   1.000000   1.000000
  392       -0.699549      0.573447   1.000000   1.000000
  393       -0.699060      0.573568   1.000000   1.000000
  394       -0.698689      0.574272   1.000000   1.000000
  395       -0.688620      0.574367   1.000000   1.000000
  396       -0.688308      0.574479   1.000000   1.000000
  397       -0.688025      0.574514   1.000000   1.000000
  398       -0.687754      0.575129   1.000000   1.000000
  399       -0.667130      0.575155   1.000000   1.000000
  400       -0.666770      0.638053   1.000000   1.000000
  401       -0.666570      0.666008   1.000000   1.000000
  402       -0.666310      0.666602   1.000000   1.000000
  403       -0.652301      0.731283   1.000000   1.000000
  404       -0.652079      0.733491   1.000000   1.000000
  405       -0.651899      0.930951   1.000000   1.000000
  406       -0.651585      0.931916   1.000000   1.000000
  407       -0.589810      0.935318   1.000000   1.000000
  408       -0.589224      0.935642   1.000000   1.000000
  409       -0.577280      0.948207   1.000000   1.000000
  410       -0.576678      0.948565   1.000000   1.000000
  411       -0.576372      0.949020   1.000000   1.000000
  412       -0.576308      0.949145   1.000000   1.000000
  413       -0.553893      0.984823   1.000000   1.000000
  414       -0.553545      0.985925   1.000000   1.000000
  415       -0.553219      0.986531   1.000000   1.000000
  416       -0.552858      0.986608   1.000000   1.000000
  417       -0.497886      0.992955   1.000000   1.000000
  418       -0.497128      0.993150   1.000000   1.000000
  419       -0.473141      1.008160   1.000000   1.000000
  420       -0.472909      1.008173   1.000000   1.000000
  421       -0.462125      1.008885   1.000000   1.000000
  422       -0.461782      1.009134   1.000000   1.000000
  423       -0.461481      1.018655   1.000000   1.000000
  424       -0.461123      1.048107   1.000000   1.000000
  425       -0.459924      1.049250   1.000000   1.000000
  426       -0.459598      1.051076   1.000000   1.000000
  427       -0.459457      1.051427   1.000000   1.000000
  428       -0.459204      1.051864   1.000000   1.000000
  429       -0.410712      1.052135   1.000000   1.000000
  430       -0.409967      1.077463   1.000000   1.000000
  431       -0.408771      1.078351   1.000000   1.000000
  432       -0.407740      1.078892   1.000000   1.000000
  433       -0.407574      1.079046   1.000000   1.000000
  434       -0.407308      1.079331   1.000000   1.000000
  435       -0.407169      1.079618   1.000000   1.000000
  436       -0.407085      1.080246   1.000000   1.000000
  437       -0.383378      1.080286   1.000000   1.000000
  438       -0.383182      1.192033   1.000000   1.000000
  439       -0.378054      1.192876   1.000000   1.000000
  440       -0.369006      1.375942   1.000000   1.000000
  441       -0.368970      1.389821   1.000000   1.000000
  442       -0.368700      1.391042   1.000000   1.000000
  443       -0.368633      1.391249   1.000000   1.000000
  444       -0.368540      1.391329   1.000000   1.000000
  445       -0.368478      1.391500   1.000000   1.000000
  446       -0.368258      1.436822   1.000000   1.000000
  447       -0.368233      1.449679   1.000000   1.000000
  448       -0.353449      1.524328   1.000000   1.000000
  449       -0.353279      1.524544   1.000000   1.000000
  450       -0.349299      1.526476   1.000000   1.000000
  451       -0.342070      1.526524   1.000000   1.000000
  452       -0.336320      1.528517   1.000000   1.000000
  453       -0.335954      1.528623   1.000000   1.000000
  454       -0.335558      1.529060   1.000000   1.000000
  455       -0.335143      1.529172   1.000000   1.000000
  456       -0.334345      1.557677   1.000000   1.000000
  457       -0.334185      1.558164   1.000000   1.000000
  458       -0.334003      1.558504   1.000000   1.000000
  459       -0.333510      1.558897   1.000000   1.000000
  460       -0.324880      1.563808   1.000000   1.000000
  461       -0.324555      1.566739   1.000000   1.000000
  462       -0.324202      1.566804   1.000000   1.000000
  463       -0.323803      1.567144   1.000000   1.000000
  464       -0.321871      1.568042   1.000000   1.000000
  465       -0.321562      1.568387   1.000000   1.000000
  466       -0.321408      1.568528   1.000000   1.000000
  467       -0.321106      1.568827   1.000000   1.000000
  468       -0.304055      1.586683   1.000000   1.000000
  469       -0.296140      1.586896   1.000000   1.000000
  470       -0.287861      1.695729   1.000000   1.000000
  471       -0.287818      1.695869   1.000000   1.000000
  472       -0.287748      1.740434   1.000000   1.000000
  473       -0.287415      1.740914   1.000000   1.000000
  474       -0.280377      1.741195   1.000000   1.000000
  475       -0.280114      1.741569   1.000000   1.000000
  476       -0.275104      1.745251   1.000000   1.000000
  477       -0.274861      1.745293   1.000000   1.000000
  478       -0.274856      1.747291   1.000000   1.000000
  479       -0.274352      1.747355   1.000000   1.000000
  480       -0.241719      1.779008   1.000000   1.000000
  481       -0.241604      1.780383   1.000000   1.000000
  482       -0.241537      1.780650   1.000000   1.000000
  483       -0.241449      1.834802   1.000000   1.000000
  484       -0.241299      1.836969   1.000000   1.000000
  485       -0.241165      1.837089   1.000000   1.000000
  486       -0.241074      1.837488   1.000000   1.000000
  487       -0.240844      1.837554   1.000000   1.000000
  488       -0.207267      1.838105   1.000000   1.000000
  489       -0.207264      1.838209   1.000000   1.000000
  490       -0.199678      1.838814   1.000000   1.000000
  491       -0.199598      1.866039   1.000000   1.000000
  492       -0.199431      1.867066   1.000000   1.000000
  493       -0.198909      1.911605   1.000000   1.000000
  494       -0.193947      1.912071   1.000000   1.000000
  495       -0.193822      1.913513   1.000000   1.000000
  496       -0.164001      1.913643   1.000000   1.000000
  497       -0.163768      1.913724   1.000000   1.000000
  498       -0.163706      1.913778   1.000000   1.000000
  499       -0.163543      1.913872   1.000000   1.000000
  500       -0.156596      1.913935   1.000000   1.000000
  501       -0.156370      1.926687   1.000000   1.000000
  502       -0.156113      1.926870   1.000000   1.000000
  503       -0.155898      1.927241   1.000000   1.000000
  504       -0.139069      1.927292   1.000000   1.000000
  505       -0.138863      2.132969   1.000000   1.000000
  506       -0.138709      2.133214   1.000000   1.000000
  507       -0.138506      2.191352   1.000000   1.000000
  508       -0.090888      2.193281   1.000000   1.000000
  509       -0.090808      2.300547   1.000000   1.000000
  510       -0.082844      2.300645   1.000000   1.000000
  511       -0.082746      2.300891   1.000000   1.000000
  512       -0.082691      2.301306   1.000000   1.000000