  22  22   0   0
  0.1431748E+02  0.5556117E-09  0.5558726E-09  0.1056954E-08  0.5000000E-15
  1.000000000000000E-004
  CAR 
 unknown system                          
     20.47490279    -54.46108829  301      5.30036460      1.00000000
    -54.461  0.0000E+00  0.0000E+00  0.0000E+00  0.0000E+00
    -54.211  0.0000E+00  0.0000E+00  0.0000E+00  0.0000E+00
    -53.962  0.0000E+00  0.0000E+00  0.0000E+00  0.0000E+00
    -53.712  0.0000E+00  0.0000E+00  0.0000E+00  0.0000E+00
    -53.462  0.0000E+00  0.0000E+00  0.0000E+00  0.0000E+00
    -53.212  0.0000E+00  0.0000E+00  0.0000E+00  0.0000E+00
    -52.962  0.0000E+00  0.0000E+00  0.0000E+00  0.0000E+00
    -52.713  0.0000E+00  0.0000E+00  0.0000E+00  0.0000E+00
    -52.463  0.0000E+00  0.0000E+00  0.0000E+00  0.0000E+00
    -52.213  0.0000E+00  0.0000E+00  0.0000E+00  0.0000E+00
    -51.963  0.0000E+00  0.0000E+00  0.0000E+00  0.0000E+00
    -51.713  0.0000E+00  0.0000E+00  0.0000E+00  0.0000E+00
    -51.464  0.0000E+00  0.0000E+00  0.0000E+00  0.0000E+00
    -51.214  0.5466E-04  0.0000E+00  0.1365E-04  0.0000E+00
    -50.964  0.3171E+02  0.0000E+00  0.7920E+01  0.0000E+00
    -50.714  0.3210E+00  0.0000E+00  0.8000E+01  0.0000E+00
    -50.465  0.0000E+00  0.0000E+00  0.8000E+01  0.0000E+00
    -50.215  0.0000E+00  0.0000E+00  0.8000E+01  0.0000E+00
    -49.965  0.4446E-12  0.0000E+00  0.8000E+01  0.0000E+00
    -49.715  0.5011E+01  0.0000E+00  0.9252E+01  0.0000E+00
    -49.465  0.5881E+02  0.0000E+00  0.2394E+02  0.0000E+00
    -49.216  0.2319E+00  0.0000E+00  0.2400E+02  0.0000E+00
    -48.966  0.0000E+00  0.0000E+00  0.2400E+02  0.0000E+00
    -48.716  0.0000E+00  0.0000E+00  0.2400E+02  0.0000E+00
    -48.466  0.0000E+00  0.0000E+00  0.2400E+02  0.0000E+00
    -48.216  0.0000E+00  0.0000E+00  0.2400E+02  0.0000E+00
    -47.967  0.0000E+00  0.0000E+00  0.2400E+02  0.0000E+00
    -47.717  0.0000E+00  0.0000E+00  0.2400E+02  0.0000E+00
    -47.467  0.0000E+00  0.0000E+00  0.2400E+02  0.0000E+00
    -47.217  0.0000E+00  0.0000E+00  0.2400E+02  0.0000E+00
    -46.967  0.0000E+00  0.0000E+00  0.2400E+02  0.0000E+00
    -46.718  0.0000E+00  0.0000E+00  0.2400E+02  0.0000E+00
    -46.468  0.0000E+00  0.2662E-04  0.2400E+02  0.6649E-05
    -46.218  0.0000E+00  0.3055E+02  0.2400E+02  0.7632E+01
    -45.968  0.0000E+00  0.4139E+01  0.2400E+02  0.8666E+01
    -45.719  0.0000E+00  0.6138E+02  0.2400E+02  0.2400E+02
    -45.469  0.0000E+00  0.5831E-02  0.2400E+02  0.2400E+02
    -45.219  0.0000E+00  0.0000E+00  0.2400E+02  0.2400E+02
    -44.969  0.0000E+00  0.0000E+00  0.2400E+02  0.2400E+02
    -44.719  0.0000E+00  0.0000E+00  0.2400E+02  0.2400E+02
    -44.470  0.0000E+00  0.0000E+00  0.2400E+02  0.2400E+02
    -44.220  0.0000E+00  0.0000E+00  0.2400E+02  0.2400E+02
    -43.970  0.0000E+00  0.0000E+00  0.2400E+02  0.2400E+02
    -43.720  0.0000E+00  0.0000E+00  0.2400E+02  0.2400E+02
    -43.470  0.0000E+00  0.0000E+00  0.2400E+02  0.2400E+02
    -43.221  0.0000E+00  0.0000E+00  0.2400E+02  0.2400E+02
    -42.971  0.0000E+00  0.0000E+00  0.2400E+02  0.2400E+02
    -42.721  0.0000E+00  0.0000E+00  0.2400E+02  0.2400E+02
    -42.471  0.0000E+00  0.0000E+00  0.2400E+02  0.2400E+02
    -42.222  0.0000E+00  0.0000E+00  0.2400E+02  0.2400E+02
    -41.972  0.0000E+00  0.0000E+00  0.2400E+02  0.2400E+02
    -41.722  0.0000E+00  0.0000E+00  0.2400E+02  0.2400E+02
    -41.472  0.0000E+00  0.0000E+00  0.2400E+02  0.2400E+02
    -41.222  0.0000E+00  0.0000E+00  0.2400E+02  0.2400E+02
    -40.973  0.0000E+00  0.0000E+00  0.2400E+02  0.2400E+02
    -40.723  0.0000E+00  0.0000E+00  0.2400E+02  0.2400E+02
    -40.473  0.0000E+00  0.0000E+00  0.2400E+02  0.2400E+02
    -40.223  0.0000E+00  0.0000E+00  0.2400E+02  0.2400E+02
    -39.973  0.1681E-01  0.1382E-01  0.2400E+02  0.2400E+02
    -39.724  0.1600E+02  0.1600E+02  0.2800E+02  0.2800E+02
    -39.474  0.5317E-03  0.6789E-03  0.2800E+02  0.2800E+02
    -39.224  0.0000E+00  0.0000E+00  0.2800E+02  0.2800E+02
    -38.974  0.0000E+00  0.0000E+00  0.2800E+02  0.2800E+02
    -38.725  0.0000E+00  0.0000E+00  0.2800E+02  0.2800E+02
    -38.475  0.0000E+00  0.0000E+00  0.2800E+02  0.2800E+02
    -38.225  0.0000E+00  0.0000E+00  0.2800E+02  0.2800E+02
    -37.975  0.0000E+00  0.0000E+00  0.2800E+02  0.2800E+02
    -37.725  0.0000E+00  0.0000E+00  0.2800E+02  0.2800E+02
    -37.476  0.0000E+00  0.0000E+00  0.2800E+02  0.2800E+02
    -37.226  0.0000E+00  0.0000E+00  0.2800E+02  0.2800E+02
    -36.976  0.0000E+00  0.0000E+00  0.2800E+02  0.2800E+02
    -36.726  0.0000E+00  0.0000E+00  0.2800E+02  0.2800E+02
    -36.476  0.0000E+00  0.0000E+00  0.2800E+02  0.2800E+02
    -36.227  0.0000E+00  0.0000E+00  0.2800E+02  0.2800E+02
    -35.977  0.0000E+00  0.0000E+00  0.2800E+02  0.2800E+02
    -35.727  0.0000E+00  0.0000E+00  0.2800E+02  0.2800E+02
    -35.477  0.0000E+00  0.0000E+00  0.2800E+02  0.2800E+02
    -35.228  0.0000E+00  0.0000E+00  0.2800E+02  0.2800E+02
    -34.978  0.0000E+00  0.0000E+00  0.2800E+02  0.2800E+02
    -34.728  0.0000E+00  0.0000E+00  0.2800E+02  0.2800E+02
    -34.478  0.0000E+00  0.0000E+00  0.2800E+02  0.2800E+02
    -34.228  0.0000E+00  0.0000E+00  0.2800E+02  0.2800E+02
    -33.979  0.0000E+00  0.0000E+00  0.2800E+02  0.2800E+02
    -33.729  0.0000E+00  0.0000E+00  0.2800E+02  0.2800E+02
    -33.479  0.0000E+00  0.0000E+00  0.2800E+02  0.2800E+02
    -33.229  0.0000E+00  0.0000E+00  0.2800E+02  0.2800E+02
    -32.979  0.0000E+00  0.0000E+00  0.2800E+02  0.2800E+02
    -32.730  0.0000E+00  0.0000E+00  0.2800E+02  0.2800E+02
    -32.480  0.0000E+00  0.0000E+00  0.2800E+02  0.2800E+02
    -32.230  0.0000E+00  0.0000E+00  0.2800E+02  0.2800E+02
    -31.980  0.0000E+00  0.0000E+00  0.2800E+02  0.2800E+02
    -31.731  0.0000E+00  0.0000E+00  0.2800E+02  0.2800E+02
    -31.481  0.0000E+00  0.0000E+00  0.2800E+02  0.2800E+02
    -31.231  0.0000E+00  0.0000E+00  0.2800E+02  0.2800E+02
    -30.981  0.0000E+00  0.0000E+00  0.2800E+02  0.2800E+02
    -30.731  0.0000E+00  0.0000E+00  0.2800E+02  0.2800E+02
    -30.482  0.0000E+00  0.0000E+00  0.2800E+02  0.2800E+02
    -30.232  0.0000E+00  0.0000E+00  0.2800E+02  0.2800E+02
    -29.982  0.0000E+00  0.0000E+00  0.2800E+02  0.2800E+02
    -29.732  0.0000E+00  0.0000E+00  0.2800E+02  0.2800E+02
    -29.482  0.0000E+00  0.0000E+00  0.2800E+02  0.2800E+02
    -29.233  0.0000E+00  0.0000E+00  0.2800E+02  0.2800E+02
    -28.983  0.0000E+00  0.0000E+00  0.2800E+02  0.2800E+02
    -28.733  0.0000E+00  0.0000E+00  0.2800E+02  0.2800E+02
    -28.483  0.0000E+00  0.0000E+00  0.2800E+02  0.2800E+02
    -28.233  0.0000E+00  0.0000E+00  0.2800E+02  0.2800E+02
    -27.984  0.0000E+00  0.0000E+00  0.2800E+02  0.2800E+02
    -27.734  0.0000E+00  0.0000E+00  0.2800E+02  0.2800E+02
    -27.484  0.0000E+00  0.0000E+00  0.2800E+02  0.2800E+02
    -27.234  0.0000E+00  0.0000E+00  0.2800E+02  0.2800E+02
    -26.985  0.0000E+00  0.0000E+00  0.2800E+02  0.2800E+02
    -26.735  0.0000E+00  0.0000E+00  0.2800E+02  0.2800E+02
    -26.485  0.0000E+00  0.0000E+00  0.2800E+02  0.2800E+02
    -26.235  0.0000E+00  0.0000E+00  0.2800E+02  0.2800E+02
    -25.985  0.0000E+00  0.0000E+00  0.2800E+02  0.2800E+02
    -25.736  0.0000E+00  0.0000E+00  0.2800E+02  0.2800E+02
    -25.486  0.0000E+00  0.0000E+00  0.2800E+02  0.2800E+02
    -25.236  0.0000E+00  0.0000E+00  0.2800E+02  0.2800E+02
    -24.986  0.0000E+00  0.0000E+00  0.2800E+02  0.2800E+02
    -24.736  0.0000E+00  0.0000E+00  0.2800E+02  0.2800E+02
    -24.487  0.0000E+00  0.0000E+00  0.2800E+02  0.2800E+02
    -24.237  0.0000E+00  0.0000E+00  0.2800E+02  0.2800E+02
    -23.987  0.0000E+00  0.0000E+00  0.2800E+02  0.2800E+02
    -23.737  0.0000E+00  0.0000E+00  0.2800E+02  0.2800E+02
    -23.488  0.0000E+00  0.0000E+00  0.2800E+02  0.2800E+02
    -23.238  0.0000E+00  0.0000E+00  0.2800E+02  0.2800E+02
    -22.988  0.0000E+00  0.0000E+00  0.2800E+02  0.2800E+02
    -22.738  0.0000E+00  0.0000E+00  0.2800E+02  0.2800E+02
    -22.488  0.0000E+00  0.0000E+00  0.2800E+02  0.2800E+02
    -22.239  0.0000E+00  0.0000E+00  0.2800E+02  0.2800E+02
    -21.989  0.0000E+00  0.0000E+00  0.2800E+02  0.2800E+02
    -21.739  0.0000E+00  0.0000E+00  0.2800E+02  0.2800E+02
    -21.489  0.0000E+00  0.0000E+00  0.2800E+02  0.2800E+02
    -21.239  0.0000E+00  0.0000E+00  0.2800E+02  0.2800E+02
    -20.990  0.0000E+00  0.0000E+00  0.2800E+02  0.2800E+02
    -20.740  0.0000E+00  0.0000E+00  0.2800E+02  0.2800E+02
    -20.490  0.0000E+00  0.0000E+00  0.2800E+02  0.2800E+02
    -20.240  0.0000E+00  0.0000E+00  0.2800E+02  0.2800E+02
    -19.991  0.0000E+00  0.0000E+00  0.2800E+02  0.2800E+02
    -19.741  0.0000E+00  0.0000E+00  0.2800E+02  0.2800E+02
    -19.491  0.0000E+00  0.0000E+00  0.2800E+02  0.2800E+02
    -19.241  0.0000E+00  0.0000E+00  0.2800E+02  0.2800E+02
    -18.991  0.0000E+00  0.0000E+00  0.2800E+02  0.2800E+02
    -18.742  0.0000E+00  0.0000E+00  0.2800E+02  0.2800E+02
    -18.492  0.0000E+00  0.0000E+00  0.2800E+02  0.2800E+02
    -18.242  0.0000E+00  0.0000E+00  0.2800E+02  0.2800E+02
    -17.992  0.0000E+00  0.0000E+00  0.2800E+02  0.2800E+02
    -17.742  0.0000E+00  0.0000E+00  0.2800E+02  0.2800E+02
    -17.493  0.0000E+00  0.0000E+00  0.2800E+02  0.2800E+02
    -17.243  0.0000E+00  0.0000E+00  0.2800E+02  0.2800E+02
    -16.993  0.0000E+00  0.0000E+00  0.2800E+02  0.2800E+02
    -16.743  0.0000E+00  0.0000E+00  0.2800E+02  0.2800E+02
    -16.494  0.0000E+00  0.0000E+00  0.2800E+02  0.2800E+02
    -16.244  0.0000E+00  0.0000E+00  0.2800E+02  0.2800E+02
    -15.994  0.0000E+00  0.0000E+00  0.2800E+02  0.2800E+02
    -15.744  0.0000E+00  0.0000E+00  0.2800E+02  0.2800E+02
    -15.494  0.0000E+00  0.0000E+00  0.2800E+02  0.2800E+02
    -15.245  0.0000E+00  0.0000E+00  0.2800E+02  0.2800E+02
    -14.995  0.0000E+00  0.0000E+00  0.2800E+02  0.2800E+02
    -14.745  0.0000E+00  0.0000E+00  0.2800E+02  0.2800E+02
    -14.495  0.0000E+00  0.0000E+00  0.2800E+02  0.2800E+02
    -14.245  0.0000E+00  0.0000E+00  0.2800E+02  0.2800E+02
    -13.996  0.0000E+00  0.0000E+00  0.2800E+02  0.2800E+02
    -13.746  0.0000E+00  0.0000E+00  0.2800E+02  0.2800E+02
    -13.496  0.3171E-14  0.0000E+00  0.2800E+02  0.2800E+02
    -13.246  0.4669E+00  0.0000E+00  0.2812E+02  0.2800E+02
    -12.997  0.1208E+02  0.1178E-06  0.3113E+02  0.2800E+02
    -12.747  0.3471E+01  0.5884E+01  0.3200E+02  0.2947E+02
    -12.497  0.0000E+00  0.1013E+02  0.3200E+02  0.3200E+02
    -12.247  0.0000E+00  0.1299E-02  0.3200E+02  0.3200E+02
    -11.997  0.0000E+00  0.0000E+00  0.3200E+02  0.3200E+02
    -11.748  0.0000E+00  0.0000E+00  0.3200E+02  0.3200E+02
    -11.498  0.0000E+00  0.0000E+00  0.3200E+02  0.3200E+02
    -11.248  0.0000E+00  0.0000E+00  0.3200E+02  0.3200E+02
    -10.998  0.0000E+00  0.0000E+00  0.3200E+02  0.3200E+02
    -10.748  0.0000E+00  0.0000E+00  0.3200E+02  0.3200E+02
    -10.499  0.0000E+00  0.0000E+00  0.3200E+02  0.3200E+02
    -10.249  0.0000E+00  0.0000E+00  0.3200E+02  0.3200E+02
     -9.999  0.0000E+00  0.0000E+00  0.3200E+02  0.3200E+02
     -9.749  0.0000E+00  0.0000E+00  0.3200E+02  0.3200E+02
     -9.499  0.0000E+00  0.0000E+00  0.3200E+02  0.3200E+02
     -9.250  0.0000E+00  0.0000E+00  0.3200E+02  0.3200E+02
     -9.000  0.0000E+00  0.0000E+00  0.3200E+02  0.3200E+02
     -8.750  0.0000E+00  0.0000E+00  0.3200E+02  0.3200E+02
     -8.500  0.0000E+00  0.0000E+00  0.3200E+02  0.3200E+02
     -8.251  0.0000E+00  0.0000E+00  0.3200E+02  0.3200E+02
     -8.001  0.0000E+00  0.0000E+00  0.3200E+02  0.3200E+02
     -7.751  0.9094E-04  0.0000E+00  0.3200E+02  0.3200E+02
     -7.501  0.1095E+01  0.1004E-03  0.3227E+02  0.3200E+02
     -7.251  0.6240E+01  0.1211E+01  0.3383E+02  0.3230E+02
     -7.002  0.6676E+01  0.6814E+01  0.3550E+02  0.3400E+02
     -6.752  0.9962E+01  0.5755E+01  0.3799E+02  0.3544E+02
     -6.502  0.4722E-01  0.9627E+01  0.3800E+02  0.3785E+02
     -6.252  0.0000E+00  0.6131E+00  0.3800E+02  0.3800E+02
     -6.002  0.0000E+00  0.0000E+00  0.3800E+02  0.3800E+02
     -5.753  0.0000E+00  0.0000E+00  0.3800E+02  0.3800E+02
     -5.503  0.0000E+00  0.0000E+00  0.3800E+02  0.3800E+02
     -5.253  0.0000E+00  0.0000E+00  0.3800E+02  0.3800E+02
     -5.003  0.0000E+00  0.0000E+00  0.3800E+02  0.3800E+02
     -4.754  0.0000E+00  0.0000E+00  0.3800E+02  0.3800E+02
     -4.504  0.0000E+00  0.0000E+00  0.3800E+02  0.3800E+02
     -4.254  0.0000E+00  0.0000E+00  0.3800E+02  0.3800E+02
     -4.004  0.0000E+00  0.0000E+00  0.3800E+02  0.3800E+02
     -3.754  0.0000E+00  0.0000E+00  0.3800E+02  0.3800E+02
     -3.505  0.0000E+00  0.0000E+00  0.3800E+02  0.3800E+02
     -3.255  0.0000E+00  0.0000E+00  0.3800E+02  0.3800E+02
     -3.005  0.0000E+00  0.0000E+00  0.3800E+02  0.3800E+02
     -2.755  0.0000E+00  0.0000E+00  0.3800E+02  0.3800E+02
     -2.505  0.0000E+00  0.0000E+00  0.3800E+02  0.3800E+02
     -2.256  0.0000E+00  0.0000E+00  0.3800E+02  0.3800E+02
     -2.006  0.1401E-01  0.0000E+00  0.3800E+02  0.3800E+02
     -1.756  0.5694E+01  0.0000E+00  0.3943E+02  0.3800E+02
     -1.506  0.4194E+01  0.0000E+00  0.4047E+02  0.3800E+02
     -1.257  0.3916E+01  0.0000E+00  0.4145E+02  0.3800E+02
     -1.007  0.6509E+01  0.0000E+00  0.4308E+02  0.3800E+02
     -0.757  0.1337E+02  0.0000E+00  0.4642E+02  0.3800E+02
     -0.507  0.1352E+02  0.2340E-01  0.4979E+02  0.3801E+02
     -0.257  0.1262E+02  0.4196E+01  0.5295E+02  0.3905E+02
     -0.008  0.1807E+02  0.3448E+01  0.5746E+02  0.3992E+02
      0.242  0.1970E+02  0.3814E+01  0.6238E+02  0.4087E+02
      0.492  0.1762E+02  0.6116E+01  0.6678E+02  0.4240E+02
      0.742  0.1616E+02  0.9740E+01  0.7082E+02  0.4483E+02
      0.992  0.9852E+01  0.9720E+01  0.7328E+02  0.4726E+02
      1.241  0.7045E+01  0.7827E+01  0.7504E+02  0.4921E+02
      1.491  0.1126E+02  0.5388E+01  0.7785E+02  0.5056E+02
      1.741  0.9404E+01  0.7089E+01  0.8020E+02  0.5233E+02
      1.991  0.1723E+02  0.9129E+01  0.8451E+02  0.5461E+02
      2.240  0.1507E+02  0.7429E+01  0.8827E+02  0.5646E+02
      2.490  0.7181E+01  0.5645E+01  0.9006E+02  0.5787E+02
      2.740  0.9912E+01  0.9024E+01  0.9254E+02  0.6013E+02
      2.990  0.7706E+01  0.1089E+02  0.9446E+02  0.6285E+02
      3.240  0.1957E+01  0.1099E+02  0.9495E+02  0.6559E+02
      3.489  0.7787E+01  0.8122E+01  0.9690E+02  0.6762E+02
      3.739  0.6334E+01  0.1856E+01  0.9848E+02  0.6809E+02
      3.989  0.8088E+01  0.6420E+01  0.1005E+03  0.6969E+02
      4.239  0.9486E+01  0.1161E+02  0.1029E+03  0.7259E+02
      4.489  0.7599E+01  0.1162E+02  0.1048E+03  0.7549E+02
      4.738  0.8822E+01  0.2026E+01  0.1070E+03  0.7600E+02
      4.988  0.3980E+01  0.0000E+00  0.1080E+03  0.7600E+02
      5.238  0.1382E+00  0.0000E+00  0.1080E+03  0.7600E+02
      5.488  0.0000E+00  0.0000E+00  0.1080E+03  0.7600E+02
      5.737  0.0000E+00  0.0000E+00  0.1080E+03  0.7600E+02
      5.987  0.0000E+00  0.0000E+00  0.1080E+03  0.7600E+02
      6.237  0.0000E+00  0.1558E-02  0.1080E+03  0.7600E+02
      6.487  0.0000E+00  0.7131E+00  0.1080E+03  0.7618E+02
      6.737  0.0000E+00  0.1078E+01  0.1080E+03  0.7645E+02
      6.986  0.0000E+00  0.3864E+01  0.1080E+03  0.7741E+02
      7.236  0.6368E-04  0.9352E+01  0.1080E+03  0.7975E+02
      7.486  0.5331E-01  0.1272E+02  0.1080E+03  0.8293E+02
      7.736  0.1509E-05  0.1560E+02  0.1080E+03  0.8682E+02
      7.986  0.2349E+00  0.1567E+02  0.1081E+03  0.9074E+02
      8.235  0.2870E+00  0.1675E+02  0.1081E+03  0.9492E+02
      8.485  0.8709E+00  0.1634E+02  0.1084E+03  0.9900E+02
      8.735  0.1709E+01  0.1413E+02  0.1088E+03  0.1025E+03
      8.985  0.3399E+01  0.1300E+02  0.1096E+03  0.1058E+03
      9.235  0.3570E+01  0.7160E+01  0.1105E+03  0.1076E+03
      9.484  0.3438E+01  0.2111E+01  0.1114E+03  0.1081E+03
      9.734  0.4953E+01  0.1375E+01  0.1126E+03  0.1084E+03
      9.984  0.4397E+01  0.1600E+01  0.1137E+03  0.1088E+03
     10.234  0.4702E+01  0.4392E+01  0.1149E+03  0.1099E+03
     10.483  0.3952E+01  0.5517E+01  0.1159E+03  0.1113E+03
     10.733  0.3267E+01  0.4151E+01  0.1167E+03  0.1123E+03
     10.983  0.4347E+01  0.6362E+01  0.1178E+03  0.1139E+03
     11.233  0.4830E+01  0.6161E+01  0.1190E+03  0.1155E+03
     11.483  0.6185E+01  0.4040E+01  0.1205E+03  0.1165E+03
     11.732  0.7135E+01  0.4139E+01  0.1223E+03  0.1175E+03
     11.982  0.7909E+01  0.2635E+01  0.1243E+03  0.1182E+03
     12.232  0.6925E+01  0.6109E+01  0.1260E+03  0.1197E+03
     12.482  0.3552E+01  0.9159E+01  0.1269E+03  0.1220E+03
     12.732  0.5946E+01  0.8989E+01  0.1284E+03  0.1242E+03
     12.981  0.5553E+01  0.5134E+01  0.1298E+03  0.1255E+03
     13.231  0.5721E+01  0.5356E+01  0.1312E+03  0.1269E+03
     13.481  0.5679E+01  0.6442E+01  0.1326E+03  0.1285E+03
     13.731  0.6497E+01  0.5975E+01  0.1343E+03  0.1300E+03
     13.980  0.5386E+01  0.6479E+01  0.1356E+03  0.1316E+03
     14.230  0.4096E+01  0.5765E+01  0.1366E+03  0.1330E+03
     14.480  0.3375E+01  0.4531E+01  0.1375E+03  0.1341E+03
     14.730  0.3357E+01  0.6008E+01  0.1383E+03  0.1356E+03
     14.980  0.3814E+01  0.4062E+01  0.1393E+03  0.1367E+03
     15.229  0.1727E+01  0.4777E+01  0.1397E+03  0.1379E+03
     15.479  0.3888E+01  0.3840E+01  0.1407E+03  0.1388E+03
     15.729  0.4590E+01  0.1891E+01  0.1418E+03  0.1393E+03
     15.979  0.3352E+01  0.1889E+01  0.1426E+03  0.1398E+03
     16.229  0.3569E+01  0.4415E+01  0.1435E+03  0.1409E+03
     16.478  0.1856E+01  0.4144E+01  0.1440E+03  0.1419E+03
     16.728  0.0000E+00  0.3565E+01  0.1440E+03  0.1428E+03
     16.978  0.0000E+00  0.3301E+01  0.1440E+03  0.1436E+03
     17.228  0.0000E+00  0.1552E+01  0.1440E+03  0.1440E+03
     17.477  0.0000E+00  0.0000E+00  0.1440E+03  0.1440E+03
     17.727  0.0000E+00  0.0000E+00  0.1440E+03  0.1440E+03
     17.977  0.0000E+00  0.0000E+00  0.1440E+03  0.1440E+03
     18.227  0.0000E+00  0.0000E+00  0.1440E+03  0.1440E+03
     18.477  0.0000E+00  0.0000E+00  0.1440E+03  0.1440E+03
     18.726  0.0000E+00  0.0000E+00  0.1440E+03  0.1440E+03
     18.976  0.0000E+00  0.0000E+00  0.1440E+03  0.1440E+03
     19.226  0.0000E+00  0.0000E+00  0.1440E+03  0.1440E+03
     19.476  0.0000E+00  0.0000E+00  0.1440E+03  0.1440E+03
     19.726  0.0000E+00  0.0000E+00  0.1440E+03  0.1440E+03
     19.975  0.0000E+00  0.0000E+00  0.1440E+03  0.1440E+03
     20.225  0.0000E+00  0.0000E+00  0.1440E+03  0.1440E+03
     20.475  0.0000E+00  0.0000E+00  0.1440E+03  0.1440E+03
