   22   22    1    2
  0.1431748E+02  0.5556117E-09  0.5558726E-09  0.1056954E-08  0.5000000E-15
  1.000000000000000E-004
  CAR 
 unknown system                          
    184     38    144
 
  0.0000000E+00  0.0000000E+00  0.0000000E+00  0.1333333E-01
    1      -51.054812    -46.304188   1.000000   1.000000
    2      -51.054787    -46.304174   1.000000   1.000000
    3      -51.052664    -46.304120   1.000000   1.000000
    4      -51.050513    -46.301237   1.000000   1.000000
    5      -51.044246    -46.270604   1.000000   1.000000
    6      -51.044214    -46.270516   1.000000   1.000000
    7      -51.039388    -46.263614   1.000000   1.000000
    8      -51.039337    -46.263544   1.000000   1.000000
    9      -49.701566    -45.937509   1.000000   1.000000
   10      -49.701444    -45.937324   1.000000   1.000000
   11      -49.694054    -45.929592   1.000000   1.000000
   12      -49.693952    -45.929448   1.000000   1.000000
   13      -49.598585    -45.868782   1.000000   1.000000
   14      -49.596426    -45.865941   1.000000   1.000000
   15      -49.596407    -45.865347   1.000000   1.000000
   16      -49.596177    -45.865155   1.000000   1.000000
   17      -49.567338    -45.857334   1.000000   1.000000
   18      -49.564942    -45.854321   1.000000   1.000000
   19      -49.564410    -45.853549   1.000000   1.000000
   20      -49.564405    -45.853349   1.000000   1.000000
   21      -49.554252    -45.848770   1.000000   1.000000
   22      -49.554076    -45.848623   1.000000   1.000000
   23      -49.539544    -45.835736   1.000000   1.000000
   24      -49.539374    -45.835558   1.000000   1.000000
   25      -39.865569    -39.863640   1.000000   1.000000
   26      -39.865368    -39.863424   1.000000   1.000000
   27      -39.864099    -39.861974   1.000000   1.000000
   28      -39.864091    -39.861966   1.000000   1.000000
   29      -13.210372    -12.806302   1.000000   1.000000
   30      -13.183495    -12.777275   1.000000   1.000000
   31      -12.988097    -12.646453   1.000000   1.000000
   32      -12.977352    -12.634575   1.000000   1.000000
   33       -7.645269     -7.394538   1.000000   1.000000
   34       -7.406842     -7.196705   1.000000   1.000000
   35       -7.036615     -6.795537   1.000000   1.000000
   36       -7.021810     -6.708272   1.000000   1.000000
   37       -6.834454     -6.521613   1.000000   1.000000
   38       -6.803723     -6.474150   1.000000   1.000000
   39       -1.910462     -0.423371   1.000000   1.000000
   40       -1.893536     -0.362296   1.000000   1.000000
   41       -1.298272      0.498634   1.000000   1.000000
   42       -1.107164      0.621337   1.000000   1.000000
   43       -1.049371      0.727689   1.000000   1.000000
   44       -0.981022      0.869049   1.000000   1.000000
   45       -0.964700      0.871883   1.000000   1.000000
   46       -0.959514      1.008324   1.000000   1.000000
   47       -0.922810      1.056067   1.000000   1.000000
   48       -0.803561      1.059391   1.000000   1.000000
   49       -0.281488      1.198466   1.000000   1.000000
   50       -0.269332      1.299649   1.000000   1.000000
   51       -0.262839      1.301903   1.000000   1.000000
   52       -0.255141      1.404754   1.000000   1.000000
   53       -0.158007      1.485261   1.000000   1.000000
   54       -0.070867      1.610370   1.000000   1.000000
   55       -0.043467      1.660016   1.000000   1.000000
   56        0.046209      1.890993   1.000000   1.000000
   57        0.093329      2.316257   1.000000   1.000000
   58        0.157766      2.526173   1.000000   1.000000
   59        0.162639      2.572861   1.000000   1.000000
   60        0.176776      2.912106   1.000000   1.000000
   61        0.189115      3.006954   1.000000   1.000000
   62        0.193299      3.039646   1.000000   1.000000
   63        0.194124      3.097450   1.000000   1.000000
   64        0.238703      3.272492   1.000000   1.000000
   65        0.337351      3.276855   1.000000   1.000000
   66        0.347239      3.344800   1.000000   1.000000
   67        0.607792      3.541036   1.000000   1.000000
   68        0.722814      3.672210   1.000000   1.000000
   69        0.783179      3.717743   1.000000   1.000000
   70        0.909269      3.962652   1.000000   1.000000
   71        0.940434      3.968441   1.000000   1.000000
   72        0.983015      4.011915   1.000000   1.000000
   73        1.025843      4.094666   1.000000   1.000000
   74        1.070288      4.407245   1.000000   1.000000
   75        1.269325      4.409387   1.000000   1.000000
   76        1.428444      4.529295   1.000000   1.000000
   77        1.466916      6.318863   1.000000   0.000000
   78        1.481458      6.453275   1.000000   0.000000
   79        1.576869      6.767782   1.000000   0.000000
   80        1.646234      6.799585   1.000000   0.000000
   81        1.655370      6.884407   1.000000   0.000000
   82        1.810823      7.309950   1.000000   0.000000
   83        1.823267      7.429448   1.000000   0.000000
   84        1.846208      7.455318   1.000000   0.000000
   85        1.846638      7.462080   1.000000   0.000000
   86        1.878381      7.468970   1.000000   0.000000
   87        2.009669      7.566160   1.000000   0.000000
   88        2.018829      7.570689   1.000000   0.000000
   89        2.284649      7.664899   1.000000   0.000000
   90        2.427792      7.894184   1.000000   0.000000
   91        2.477611      8.010152   1.000000   0.000000
   92        2.503614      8.010800   1.000000   0.000000
   93        2.527536      8.057710   1.000000   0.000000
   94        2.656117      8.089614   1.000000   0.000000
   95        2.833890      8.159559   1.000000   0.000000
   96        3.061611      8.180271   1.000000   0.000000
   97        3.348113      8.260029   1.000000   0.000000
   98        3.375661      8.272105   1.000000   0.000000
   99        3.440594      8.282827   1.000000   0.000000
  100        3.531669      8.373055   1.000000   0.000000
  101        3.747967      8.410996   1.000000   0.000000
  102        4.070299      8.419967   1.000000   0.000000
  103        4.138563      8.659054   1.000000   0.000000
  104        4.149170      8.714721   1.000000   0.000000
  105        4.151277      8.721237   1.000000   0.000000
  106        4.338010      8.778507   1.000000   0.000000
  107        4.444452      8.810636   1.000000   0.000000
  108        4.446129      9.061527   1.000000   0.000000
  109        7.343601      9.063410   0.000000   0.000000
  110        8.128408      9.808025   0.000000   0.000000
  111        8.444894      9.960973   0.000000   0.000000
  112        8.858091     10.440429   0.000000   0.000000
  113        9.859031     10.577336   0.000000   0.000000
  114        9.878934     10.714259   0.000000   0.000000
  115        9.889252     10.757703   0.000000   0.000000
  116       10.416568     11.163766   0.000000   0.000000
  117       10.675734     11.615221   0.000000   0.000000
  118       10.975971     12.207368   0.000000   0.000000
  119       11.178182     12.294123   0.000000   0.000000
  120       11.188761     12.389307   0.000000   0.000000
  121       11.290476     12.395953   0.000000   0.000000
  122       11.458802     12.410714   0.000000   0.000000
  123       11.815635     12.547446   0.000000   0.000000
  124       11.815664     12.611642   0.000000   0.000000
  125       11.882265     12.632301   0.000000   0.000000
  126       12.242655     13.044753   0.000000   0.000000
  127       12.872535     13.665154   0.000000   0.000000
  128       13.200806     13.771401   0.000000   0.000000
  129       13.504602     14.066865   0.000000   0.000000
  130       14.217632     14.743475   0.000000   0.000000
  131       14.360374     15.116611   0.000000   0.000000
  132       14.360429     15.125783   0.000000   0.000000
  133       14.582668     15.139163   0.000000   0.000000
  134       14.617635     15.318804   0.000000   0.000000
  135       14.635752     15.424625   0.000000   0.000000
  136       14.823594     15.428550   0.000000   0.000000
  137       14.882576     15.465907   0.000000   0.000000
  138       15.375194     15.866833   0.000000   0.000000
  139       15.573610     15.936132   0.000000   0.000000
  140       15.627346     16.104207   0.000000   0.000000
  141       15.929515     16.662898   0.000000   0.000000
  142       16.049629     16.962447   0.000000   0.000000
  143       16.123996     16.997452   0.000000   0.000000
  144       16.171807     17.021609   0.000000   0.000000
 
  0.2000000E+00  0.0000000E+00 -0.1387779E-16  0.2666667E-01
    1      -51.054615    -46.304184   1.000000   1.000000
    2      -51.054489    -46.304113   1.000000   1.000000
    3      -51.052856    -46.303897   1.000000   1.000000
    4      -51.051006    -46.301522   1.000000   1.000000
    5      -51.044147    -46.270604   1.000000   1.000000
    6      -51.044079    -46.270521   1.000000   1.000000
    7      -51.039411    -46.263629   1.000000   1.000000
    8      -51.039368    -46.263558   1.000000   1.000000
    9      -49.701556    -45.937495   1.000000   1.000000
   10      -49.701441    -45.937321   1.000000   1.000000
   11      -49.694064    -45.929616   1.000000   1.000000
   12      -49.693961    -45.929466   1.000000   1.000000
   13      -49.598380    -45.868447   1.000000   1.000000
   14      -49.596634    -45.865886   1.000000   1.000000
   15      -49.596383    -45.865509   1.000000   1.000000
   16      -49.596196    -45.865398   1.000000   1.000000
   17      -49.567140    -45.857075   1.000000   1.000000
   18      -49.565254    -45.854678   1.000000   1.000000
   19      -49.564410    -45.853483   1.000000   1.000000
   20      -49.564303    -45.853355   1.000000   1.000000
   21      -49.554252    -45.848761   1.000000   1.000000
   22      -49.554068    -45.848564   1.000000   1.000000
   23      -49.539549    -45.835762   1.000000   1.000000
   24      -49.539369    -45.835549   1.000000   1.000000
   25      -39.865395    -39.863470   1.000000   1.000000
   26      -39.865227    -39.863296   1.000000   1.000000
   27      -39.864211    -39.862056   1.000000   1.000000
   28      -39.864192    -39.862045   1.000000   1.000000
   29      -13.188468    -12.789555   1.000000   1.000000
   30      -13.164328    -12.763473   1.000000   1.000000
   31      -13.008414    -12.660027   1.000000   1.000000
   32      -12.997550    -12.647894   1.000000   1.000000
   33       -7.576312     -7.330516   1.000000   1.000000
   34       -7.365971     -7.150604   1.000000   1.000000
   35       -7.086874     -6.848424   1.000000   1.000000
   36       -6.987480     -6.685789   1.000000   1.000000
   37       -6.899781     -6.606191   1.000000   1.000000
   38       -6.805556     -6.489090   1.000000   1.000000
   39       -1.851454     -0.317191   1.000000   1.000000
   40       -1.843752     -0.222534   1.000000   1.000000
   41       -1.360775      0.388185   1.000000   1.000000
   42       -1.260456      0.602107   1.000000   1.000000
   43       -1.059545      0.692456   1.000000   1.000000
   44       -1.032189      0.706656   1.000000   1.000000
   45       -0.928697      0.824029   1.000000   1.000000
   46       -0.914818      0.866060   1.000000   1.000000
   47       -0.719134      0.916176   1.000000   1.000000
   48       -0.707892      0.953581   1.000000   1.000000
   49       -0.452772      0.999108   1.000000   1.000000
   50       -0.348124      1.254386   1.000000   1.000000
   51       -0.299648      1.475534   1.000000   1.000000
   52       -0.283076      1.588357   1.000000   1.000000
   53       -0.209093      1.592318   1.000000   1.000000
   54       -0.106060      1.648433   1.000000   1.000000
   55       -0.047161      1.942527   1.000000   1.000000
   56       -0.019826      2.090568   1.000000   1.000000
   57        0.007947      2.383985   1.000000   1.000000
   58        0.079503      2.523207   1.000000   1.000000
   59        0.098131      2.629513   1.000000   1.000000
   60        0.119943      2.726416   1.000000   1.000000
   61        0.168705      2.850384   1.000000   1.000000
   62        0.216104      2.927945   1.000000   1.000000
   63        0.254937      2.935024   1.000000   1.000000
   64        0.305757      3.023968   1.000000   1.000000
   65        0.327658      3.120905   1.000000   1.000000
   66        0.366946      3.385169   1.000000   1.000000
   67        0.586778      3.473040   1.000000   1.000000
   68        0.665029      3.564990   1.000000   1.000000
   69        0.676930      3.705390   1.000000   1.000000
   70        0.772266      3.861237   1.000000   1.000000
   71        0.882238      4.053921   1.000000   1.000000
   72        0.889438      4.064686   1.000000   1.000000
   73        1.040915      4.131251   1.000000   1.000000
   74        1.184917      4.343347   1.000000   1.000000
   75        1.190759      4.406568   1.000000   1.000000
   76        1.271817      4.552078   1.000000   1.000000
   77        1.276761      6.444464   1.000000   0.000000
   78        1.491840      6.853292   1.000000   0.000000
   79        1.533105      6.946748   1.000000   0.000000
   80        1.654791      6.969639   1.000000   0.000000
   81        1.693656      7.047949   1.000000   0.000000
   82        1.815621      7.327851   1.000000   0.000000
   83        1.831727      7.390367   1.000000   0.000000
   84        1.899941      7.449943   1.000000   0.000000
   85        1.931851      7.527850   1.000000   0.000000
   86        1.997862      7.553568   1.000000   0.000000
   87        2.018704      7.640345   1.000000   0.000000
   88        2.075747      7.735753   1.000000   0.000000
   89        2.124764      7.863608   1.000000   0.000000
   90        2.428219      7.878848   1.000000   0.000000
   91        2.474011      7.918582   1.000000   0.000000
   92        2.650671      7.977490   1.000000   0.000000
   93        2.693865      8.005225   1.000000   0.000000
   94        2.698008      8.126186   1.000000   0.000000
   95        2.782822      8.196973   1.000000   0.000000
   96        3.222514      8.217909   1.000000   0.000000
   97        3.392544      8.257445   1.000000   0.000000
   98        3.471354      8.342551   1.000000   0.000000
   99        3.623174      8.371302   1.000000   0.000000
  100        3.741014      8.450668   1.000000   0.000000
  101        3.836998      8.461437   1.000000   0.000000
  102        4.023978      8.561209   1.000000   0.000000
  103        4.080484      8.582864   1.000000   0.000000
  104        4.166201      8.732863   1.000000   0.000000
  105        4.212671      8.790030   1.000000   0.000000
  106        4.229341      8.918165   1.000000   0.000000
  107        4.489343      8.966672   1.000000   0.000000
  108        4.571495      8.982240   1.000000   0.000000
  109        7.994457      9.210335   0.000000   0.000000
  110        8.634512     10.074588   0.000000   0.000000
  111        8.768116     10.083876   0.000000   0.000000
  112        8.880852     10.353778   0.000000   0.000000
  113        9.843909     10.752860   0.000000   0.000000
  114       10.088368     10.955407   0.000000   0.000000
  115       10.197261     11.024539   0.000000   0.000000
  116       10.362955     11.382255   0.000000   0.000000
  117       10.704538     11.461237   0.000000   0.000000
  118       10.931348     11.691522   0.000000   0.000000
  119       11.065541     12.161485   0.000000   0.000000
  120       11.217178     12.253224   0.000000   0.000000
  121       11.380012     12.318942   0.000000   0.000000
  122       11.411643     12.434488   0.000000   0.000000
  123       11.771345     12.560861   0.000000   0.000000
  124       11.886454     12.695742   0.000000   0.000000
  125       12.008400     13.040969   0.000000   0.000000
  126       12.517844     13.069087   0.000000   0.000000
  127       12.901940     13.519483   0.000000   0.000000
  128       13.090677     13.709142   0.000000   0.000000
  129       13.212485     13.806439   0.000000   0.000000
  130       13.336665     14.135465   0.000000   0.000000
  131       13.687998     14.500204   0.000000   0.000000
  132       13.781842     14.545840   0.000000   0.000000
  133       13.890393     14.736177   0.000000   0.000000
  134       14.111859     14.809871   0.000000   0.000000
  135       14.229055     14.980481   0.000000   0.000000
  136       14.611629     15.211450   0.000000   0.000000
  137       14.840704     15.311301   0.000000   0.000000
  138       14.933675     15.483548   0.000000   0.000000
  139       14.954078     15.595765   0.000000   0.000000
  140       15.208775     15.868629   0.000000   0.000000
  141       15.415479     16.073663   0.000000   0.000000
  142       15.457282     16.258844   0.000000   0.000000
  143       15.996407     16.616108   0.000000   0.000000
  144       16.087115     16.869215   0.000000   0.000000
 
  0.4000000E+00  0.0000000E+00 -0.2775558E-16  0.2666667E-01
    1      -51.054169    -46.304177   1.000000   1.000000
    2      -51.053822    -46.304107   1.000000   1.000000
    3      -51.053126    -46.303173   1.000000   1.000000
    4      -51.052149    -46.302267   1.000000   1.000000
    5      -51.043963    -46.270606   1.000000   1.000000
    6      -51.043903    -46.270529   1.000000   1.000000
    7      -51.039460    -46.263657   1.000000   1.000000
    8      -51.039414    -46.263581   1.000000   1.000000
    9      -49.701545    -45.937473   1.000000   1.000000
   10      -49.701438    -45.937314   1.000000   1.000000
   11      -49.694085    -45.929657   1.000000   1.000000
   12      -49.693977    -45.929495   1.000000   1.000000
   13      -49.597843    -45.867567   1.000000   1.000000
   14      -49.597173    -45.866455   1.000000   1.000000
   15      -49.596318    -45.865718   1.000000   1.000000
   16      -49.596250    -45.865532   1.000000   1.000000
   17      -49.566606    -45.856386   1.000000   1.000000
   18      -49.565896    -45.855484   1.000000   1.000000
   19      -49.564367    -45.853434   1.000000   1.000000
   20      -49.564252    -45.853362   1.000000   1.000000
   21      -49.554248    -45.848729   1.000000   1.000000
   22      -49.554069    -45.848491   1.000000   1.000000
   23      -49.539556    -45.835797   1.000000   1.000000
   24      -49.539376    -45.835548   1.000000   1.000000
   25      -39.865097    -39.863220   1.000000   1.000000
   26      -39.864937    -39.863055   1.000000   1.000000
   27      -39.864446    -39.862214   1.000000   1.000000
   28      -39.864399    -39.862176   1.000000   1.000000
   29      -13.131822    -12.747306   1.000000   1.000000
   30      -13.113851    -12.727752   1.000000   1.000000
   31      -13.062515    -12.697146   1.000000   1.000000
   32      -13.049714    -12.682854   1.000000   1.000000
   33       -7.404502     -7.168852   1.000000   1.000000
   34       -7.248687     -7.016829   1.000000   1.000000
   35       -7.219045     -6.985428   1.000000   1.000000
   36       -7.069239     -6.811914   1.000000   1.000000
   37       -6.903437     -6.617129   1.000000   1.000000
   38       -6.832720     -6.541287   1.000000   1.000000
   39       -1.737773     -0.121989   1.000000   1.000000
   40       -1.690564      0.088746   1.000000   1.000000
   41       -1.555660      0.119115   1.000000   1.000000
   42       -1.504255      0.439958   1.000000   1.000000
   43       -0.962718      0.494082   1.000000   1.000000
   44       -0.961073      0.604784   1.000000   1.000000
   45       -0.837302      0.686218   1.000000   1.000000
   46       -0.807699      0.765980   1.000000   1.000000
   47       -0.688128      0.896612   1.000000   1.000000
   48       -0.589544      1.042790   1.000000   1.000000
   49       -0.564900      1.070192   1.000000   1.000000
   50       -0.553918      1.148332   1.000000   1.000000
   51       -0.361825      1.585036   1.000000   1.000000
   52       -0.330350      1.770276   1.000000   1.000000
   53       -0.257110      1.821287   1.000000   1.000000
   54       -0.178805      1.883645   1.000000   1.000000
   55       -0.161860      1.933691   1.000000   1.000000
   56       -0.115954      2.161917   1.000000   1.000000
   57       -0.035254      2.225347   1.000000   1.000000
   58       -0.025794      2.298103   1.000000   1.000000
   59        0.020288      2.460754   1.000000   1.000000
   60        0.102916      2.668339   1.000000   1.000000
   61        0.111391      2.706601   1.000000   1.000000
   62        0.200767      2.723772   1.000000   1.000000
   63        0.259894      2.822645   1.000000   1.000000
   64        0.300052      2.941449   1.000000   1.000000
   65        0.356354      3.038365   1.000000   1.000000
   66        0.406592      3.118812   1.000000   1.000000
   67        0.579915      3.214001   1.000000   1.000000
   68        0.611002      3.374042   1.000000   1.000000
   69        0.643068      3.913431   1.000000   1.000000
   70        0.695862      3.988555   1.000000   1.000000
   71        0.711552      4.024859   1.000000   1.000000
   72        0.737676      4.104435   1.000000   1.000000
   73        0.805215      4.327232   1.000000   1.000000
   74        0.912557      4.412456   1.000000   1.000000
   75        1.276897      4.436010   1.000000   1.000000
   76        1.321610      4.550078   1.000000   1.000000
   77        1.382200      6.757103   1.000000   0.000000
   78        1.405294      7.048425   1.000000   0.000000
   79        1.475181      7.180622   1.000000   0.000000
   80        1.679726      7.204682   1.000000   0.000000
   81        1.750122      7.348591   1.000000   0.000000
   82        1.779791      7.360376   1.000000   0.000000
   83        1.883268      7.408222   1.000000   0.000000
   84        1.949518      7.480972   1.000000   0.000000
   85        2.005473      7.530579   1.000000   0.000000
   86        2.057018      7.605440   1.000000   0.000000
   87        2.064098      7.663844   1.000000   0.000000
   88        2.086781      7.739340   1.000000   0.000000
   89        2.228365      7.829107   1.000000   0.000000
   90        2.290494      7.854633   1.000000   0.000000
   91        2.502307      7.967570   1.000000   0.000000
   92        2.715274      8.025739   1.000000   0.000000
   93        2.828621      8.053398   1.000000   0.000000
   94        2.856995      8.140747   1.000000   0.000000
   95        2.983007      8.152631   1.000000   0.000000
   96        3.113389      8.270098   1.000000   0.000000
   97        3.254004      8.285505   1.000000   0.000000
   98        3.477782      8.375285   1.000000   0.000000
   99        3.681589      8.519012   1.000000   0.000000
  100        3.863317      8.575043   1.000000   0.000000
  101        3.914926      8.585198   1.000000   0.000000
  102        3.961778      8.615568   1.000000   0.000000
  103        4.191575      8.735705   1.000000   0.000000
  104        4.243824      8.813380   1.000000   0.000000
  105        4.393797      8.857041   1.000000   0.000000
  106        4.569927      9.014951   1.000000   0.000000
  107        4.626367      9.066537   1.000000   0.000000
  108        4.888428      9.218110   1.000000   0.000000
  109        9.060074     10.187614   0.000000   0.000000
  110        9.139261     10.254261   0.000000   0.000000
  111        9.578747     10.724751   0.000000   0.000000
  112        9.728375     10.838510   0.000000   0.000000
  113        9.780260     10.952971   0.000000   0.000000
  114        9.923992     11.025553   0.000000   0.000000
  115       10.571211     11.439327   0.000000   0.000000
  116       10.602823     11.534548   0.000000   0.000000
  117       11.038806     11.798525   0.000000   0.000000
  118       11.182659     12.002517   0.000000   0.000000
  119       11.304377     12.066525   0.000000   0.000000
  120       11.339459     12.226345   0.000000   0.000000
  121       11.654026     12.290626   0.000000   0.000000
  122       11.727978     12.434611   0.000000   0.000000
  123       11.772468     12.514661   0.000000   0.000000
  124       11.819216     12.641688   0.000000   0.000000
  125       11.916193     12.780062   0.000000   0.000000
  126       12.153762     12.910322   0.000000   0.000000
  127       12.162333     12.957485   0.000000   0.000000
  128       12.263693     13.079097   0.000000   0.000000
  129       12.644761     13.283528   0.000000   0.000000
  130       12.752641     13.325149   0.000000   0.000000
  131       12.870416     13.539295   0.000000   0.000000
  132       12.964651     13.614863   0.000000   0.000000
  133       13.111639     13.776460   0.000000   0.000000
  134       13.140137     13.852817   0.000000   0.000000
  135       13.417743     14.138723   0.000000   0.000000
  136       13.601342     14.228321   0.000000   0.000000
  137       13.618358     14.326135   0.000000   0.000000
  138       13.737081     14.603525   0.000000   0.000000
  139       14.306726     15.038511   0.000000   0.000000
  140       14.880567     15.524640   0.000000   0.000000
  141       15.290226     15.986486   0.000000   0.000000
  142       15.583535     16.132195   0.000000   0.000000
  143       16.161991     16.854953   0.000000   0.000000
  144       16.316491     17.068721   0.000000   0.000000
 
  0.0000000E+00  0.2000000E+00  0.0000000E+00  0.2666667E-01
    1      -51.054641    -46.304170   1.000000   1.000000
    2      -51.054485    -46.304167   1.000000   1.000000
    3      -51.052836    -46.303852   1.000000   1.000000
    4      -51.051000    -46.301516   1.000000   1.000000
    5      -51.044126    -46.270603   1.000000   1.000000
    6      -51.044115    -46.270529   1.000000   1.000000
    7      -51.039419    -46.263622   1.000000   1.000000
    8      -51.039363    -46.263564   1.000000   1.000000
    9      -49.701554    -45.937486   1.000000   1.000000
   10      -49.701452    -45.937335   1.000000   1.000000
   11      -49.694059    -45.929600   1.000000   1.000000
   12      -49.693972    -45.929482   1.000000   1.000000
   13      -49.598384    -45.868480   1.000000   1.000000
   14      -49.596630    -45.865978   1.000000   1.000000
   15      -49.596395    -45.865572   1.000000   1.000000
   16      -49.596196    -45.865210   1.000000   1.000000
   17      -49.567143    -45.857067   1.000000   1.000000
   18      -49.565263    -45.854620   1.000000   1.000000
   19      -49.564381    -45.853531   1.000000   1.000000
   20      -49.564331    -45.853386   1.000000   1.000000
   21      -49.554230    -45.848716   1.000000   1.000000
   22      -49.554088    -45.848604   1.000000   1.000000
   23      -49.539528    -45.835725   1.000000   1.000000
   24      -49.539390    -45.835579   1.000000   1.000000
   25      -39.865408    -39.863480   1.000000   1.000000
   26      -39.865244    -39.863313   1.000000   1.000000
   27      -39.864196    -39.862045   1.000000   1.000000
   28      -39.864192    -39.862045   1.000000   1.000000
   29      -13.188870    -12.789916   1.000000   1.000000
   30      -13.163915    -12.763111   1.000000   1.000000
   31      -13.008940    -12.660429   1.000000   1.000000
   32      -12.997060    -12.647523   1.000000   1.000000
   33       -7.579219     -7.332918   1.000000   1.000000
   34       -7.359318     -7.146160   1.000000   1.000000
   35       -7.092964     -6.856487   1.000000   1.000000
   36       -6.991341     -6.687092   1.000000   1.000000
   37       -6.862338     -6.554374   1.000000   1.000000
   38       -6.837994     -6.534625   1.000000   1.000000
   39       -1.858181     -0.289095   1.000000   1.000000
   40       -1.839819     -0.256807   1.000000   1.000000
   41       -1.356314      0.428729   1.000000   1.000000
   42       -1.264730      0.623315   1.000000   1.000000
   43       -1.048169      0.633415   1.000000   1.000000
   44       -1.041920      0.669198   1.000000   1.000000
   45       -0.945469      0.765365   1.000000   1.000000
   46       -0.854681      0.892792   1.000000   1.000000
   47       -0.804949      0.957346   1.000000   1.000000
   48       -0.705946      0.976181   1.000000   1.000000
   49       -0.426888      1.183864   1.000000   1.000000
   50       -0.348131      1.234605   1.000000   1.000000
   51       -0.299957      1.469150   1.000000   1.000000
   52       -0.251171      1.587340   1.000000   1.000000
   53       -0.154656      1.618368   1.000000   1.000000
   54       -0.105713      1.624613   1.000000   1.000000
   55       -0.085462      1.850283   1.000000   1.000000
   56        0.013176      2.016966   1.000000   1.000000
   57        0.061805      2.100081   1.000000   1.000000
   58        0.064330      2.600753   1.000000   1.000000
   59        0.132706      2.713060   1.000000   1.000000
   60        0.157533      2.724532   1.000000   1.000000
   61        0.160680      2.839715   1.000000   1.000000
   62        0.190572      2.925372   1.000000   1.000000
   63        0.225685      3.012613   1.000000   1.000000
   64        0.271297      3.033960   1.000000   1.000000
   65        0.335103      3.199416   1.000000   1.000000
   66        0.350489      3.389312   1.000000   1.000000
   67        0.598498      3.471888   1.000000   1.000000
   68        0.610072      3.629340   1.000000   1.000000
   69        0.679528      3.693376   1.000000   1.000000
   70        0.709045      3.832437   1.000000   1.000000
   71        0.802367      3.979505   1.000000   1.000000
   72        0.888773      4.055886   1.000000   1.000000
   73        0.992082      4.174473   1.000000   1.000000
   74        1.185022      4.348900   1.000000   1.000000
   75        1.267688      4.409035   1.000000   1.000000
   76        1.329491      4.554058   1.000000   1.000000
   77        1.353315      6.492539   1.000000   0.000000