 vasp.5.4.4.18Apr17-6-g9f103f2a35 (build Oct 25 2017 14:42:18) complex          
  
 executed on             LinuxIFC date 2021.06.02  02:22:51
 running on   24 total cores
 distrk:  each k-point on   24 cores,    1 groups
 distr:  one band on NCORES_PER_BAND=   1 cores,   24 groups


--------------------------------------------------------------------------------------------------------


 INCAR:
 POTCAR:    PAW_PBE Li_sv 10Sep2004               
 POTCAR:    PAW_PBE O 08Apr2002                   
 POTCAR:    PAW_PBE S 06Sep2000                   
 POTCAR:    PAW_PBE Fe_pv 02Aug2007               

 ----------------------------------------------------------------------------- 
|                                                                             |
|           W    W    AA    RRRRR   N    N  II  N    N   GGGG   !!!           |
|           W    W   A  A   R    R  NN   N  II  NN   N  G    G  !!!           |
|           W    W  A    A  R    R  N N  N  II  N N  N  G       !!!           |
|           W WW W  AAAAAA  RRRRR   N  N N  II  N  N N  G  GGG   !            |
|           WW  WW  A    A  R   R   N   NN  II  N   NN  G    G                |
|           W    W  A    A  R    R  N    N  II  N    N   GGGG   !!!           |
|                                                                             |
|      For optimal performance we recommend to set                            |
|        NCORE= 4 - approx SQRT( number of cores)                             |
|      NCORE specifies how many cores store one orbital (NPAR=cpu/NCORE).     |
|      This setting can  greatly improve the performance of VASP for DFT.     |
|      The default,   NCORE=1            might be grossly inefficient         |
|      on modern multi-core architectures or massively parallel machines.     |
|      Do your own testing !!!!                                               |
|      Unfortunately you need to use the default for GW and RPA calculations. |
|      (for HF NCORE is supported but not extensively tested yet)             |
|                                                                             |
 ----------------------------------------------------------------------------- 

 POTCAR:    PAW_PBE Li_sv 10Sep2004               
  local pseudopotential read in
  atomic valenz-charges read in
  non local Contribution for L=           0  read in
    real space projection operators read in
  non local Contribution for L=           0  read in
    real space projection operators read in
  non local Contribution for L=           1  read in
    real space projection operators read in
    PAW grid and wavefunctions read in
 
   number of l-projection  operators is LMAX  =           3
   number of lm-projection operators is LMMAX =           5
 
 POTCAR:    PAW_PBE O 08Apr2002                   
  local pseudopotential read in
  partial core-charges read in
  partial kinetic energy density read in
  kinetic energy density of atom read in
  atomic valenz-charges read in
  non local Contribution for L=           0  read in
    real space projection operators read in
  non local Contribution for L=           0  read in
    real space projection operators read in
  non local Contribution for L=           1  read in
    real space projection operators read in
  non local Contribution for L=           1  read in
    real space projection operators read in
    PAW grid and wavefunctions read in
 
   number of l-projection  operators is LMAX  =           4
   number of lm-projection operators is LMMAX =           8
 
 POTCAR:    PAW_PBE S 06Sep2000                   
  local pseudopotential read in
  partial core-charges read in
  partial kinetic energy density read in
  atomic valenz-charges read in
  non local Contribution for L=           0  read in
    real space projection operators read in
  non local Contribution for L=           0  read in
    real space projection operators read in
  non local Contribution for L=           1  read in
    real space projection operators read in
  non local Contribution for L=           1  read in
    real space projection operators read in
    PAW grid and wavefunctions read in
 
   number of l-projection  operators is LMAX  =           4
   number of lm-projection operators is LMMAX =           8
 
 POTCAR:    PAW_PBE Fe_pv 02Aug2007               
  local pseudopotential read in
  partial core-charges read in
  partial kinetic energy density read in
  atomic valenz-charges read in
  non local Contribution for L=           1  read in
    real space projection operators read in
  non local Contribution for L=           1  read in
    real space projection operators read in
  non local Contribution for L=           2  read in
    real space projection operators read in
  non local Contribution for L=           2  read in
    real space projection operators read in
  non local Contribution for L=           0  read in
    real space projection operators read in
  non local Contribution for L=           0  read in
    real space projection operators read in
    PAW grid and wavefunctions read in
 
   number of l-projection  operators is LMAX  =           6
   number of lm-projection operators is LMMAX =          18
 

 ----------------------------------------------------------------------------- 
|                                                                             |
|  ADVICE TO THIS USER RUNNING 'VASP/VAMP'   (HEAR YOUR MASTER'S VOICE ...):  |
|                                                                             |
|      You have a (more or less) 'large supercell' and for larger cells       |
|      it might be more efficient to use real space projection opertators     |
|      So try LREAL= Auto  in the INCAR   file.                               |
|      Mind:          For very  accurate calculation you might also keep the  |
|      reciprocal projection scheme          (i.e. LREAL=.FALSE.)             |
|                                                                             |
 ----------------------------------------------------------------------------- 

  PAW_PBE Li_sv 10Sep2004               :
 energy of atom  1       EATOM= -202.7858
 kinetic energy error for atom=    0.0072 (will be added to EATOM!!)
  PAW_PBE O 08Apr2002                   :
 energy of atom  2       EATOM= -432.3788
 kinetic energy error for atom=    0.0129 (will be added to EATOM!!)
  PAW_PBE S 06Sep2000                   :
 energy of atom  3       EATOM= -276.8230
 kinetic energy error for atom=    0.0008 (will be added to EATOM!!)
  PAW_PBE Fe_pv 02Aug2007               :
 energy of atom  4       EATOM=-2457.4239
 kinetic energy error for atom=    0.0041 (will be added to EATOM!!)
 
 
 POSCAR: # Compound: Li4O4S6Fe8. Old comment: Fe4
  positions in direct lattice
  No initial velocities read in
 exchange correlation table for  LEXCH =        8
   RHO(1)=    0.500       N(1)  =     2000
   RHO(2)=  100.500       N(2)  =     4000
 


--------------------------------------------------------------------------------------------------------


 ion  position               nearest neighbor table
   1  0.578  0.939  0.156-   7 2.00   8 2.00  14 2.53  13 2.53
   2  0.093  0.439  0.186-   8 1.98   7 1.98
   3  0.907  0.939  0.814-   5 1.98   6 1.98
   4  0.422  0.439  0.844-   6 2.00   5 2.00  13 2.53  14 2.53
   5  0.153  0.191  0.803-   3 1.98   4 2.00  15 2.01  21 2.01  22 2.01
   6  0.649  0.687  0.803-   3 1.98   4 2.00  16 2.01  21 2.01  22 2.01
   7  0.351  0.187  0.197-   2 1.98   1 2.00  17 2.01  20 2.01  19 2.01
   8  0.847  0.691  0.197-   2 1.98   1 2.00  18 2.01  20 2.01  19 2.01
   9  0.437  0.690  0.371-  16 2.41  17 2.65  18 2.65
  10  0.934  0.187  0.371-  15 2.41  18 2.65  17 2.65
  11  0.066  0.687  0.629-  18 2.41  15 2.65  16 2.65
  12  0.563  0.190  0.629-  17 2.41  16 2.65  15 2.65
  13  0.249  0.689  0.000-  19 2.51  22 2.51  21 2.52  20 2.52   4 2.53   1 2.53
  14  0.751  0.189  1.000-  22 2.51  19 2.51  20 2.52  21 2.52   1 2.53   4 2.53
  15  0.076  0.213  0.606-   5 2.01  10 2.41  11 2.65  12 2.65
  16  0.530  0.665  0.606-   6 2.01   9 2.41  12 2.65  11 2.65
  17  0.470  0.165  0.394-   7 2.01  12 2.41   9 2.65  10 2.65
  18  0.924  0.713  0.394-   8 2.01  11 2.41  10 2.65   9 2.65
  19  0.077  0.939  0.154-   8 2.01   7 2.01  13 2.51  14 2.51
  20  0.577  0.439  0.154-   7 2.01   8 2.01  14 2.52  13 2.52
  21  0.423  0.939  0.846-   6 2.01   5 2.01  13 2.52  14 2.52
  22  0.923  0.439  0.846-   5 2.01   6 2.01  14 2.51  13 2.51
 

IMPORTANT INFORMATION: All symmetrisations will be switched off!
NOSYMM: (Re-)initialisation of all symmetry stuff for point group C_1.

 
 
 KPOINTS: # No comment                            

Automatic generation of k-mesh.
Space group operators:
 irot       det(A)        alpha          n_x          n_y          n_z        tau_x        tau_y        tau_z
    1     1.000000     0.000000     1.000000     0.000000     0.000000     0.000000     0.000000     0.000000
 
 Subroutine IBZKPT returns following result:
 ===========================================
 
 Found     38 irreducible k-points:
 
 Following reciprocal coordinates:
            Coordinates               Weight
  0.000000  0.000000  0.000000      1.000000
  0.200000  0.000000 -0.000000      2.000000
  0.400000  0.000000 -0.000000      2.000000
  0.000000  0.200000  0.000000      2.000000
  0.200000  0.200000 -0.000000      2.000000
  0.400000  0.200000 -0.000000      2.000000
 -0.400000  0.200000  0.000000      2.000000
 -0.200000  0.200000  0.000000      2.000000
  0.000000  0.400000  0.000000      2.000000
  0.200000  0.400000 -0.000000      2.000000
  0.400000  0.400000 -0.000000      2.000000
 -0.400000  0.400000  0.000000      2.000000
 -0.200000  0.400000  0.000000      2.000000
  0.000000  0.000000  0.333333      2.000000
  0.200000  0.000000  0.333333      2.000000
  0.400000  0.000000  0.333333      2.000000
 -0.400000  0.000000  0.333333      2.000000
 -0.200000  0.000000  0.333333      2.000000
  0.000000  0.200000  0.333333      2.000000
  0.200000  0.200000  0.333333      2.000000
  0.400000  0.200000  0.333333      2.000000
 -0.400000  0.200000  0.333333      2.000000
 -0.200000  0.200000  0.333333      2.000000
  0.000000  0.400000  0.333333      2.000000
  0.200000  0.400000  0.333333      2.000000
  0.400000  0.400000  0.333333      2.000000
 -0.400000  0.400000  0.333333      2.000000
 -0.200000  0.400000  0.333333      2.000000
  0.000000 -0.400000  0.333333      2.000000
  0.200000 -0.400000  0.333333      2.000000
  0.400000 -0.400000  0.333333      2.000000
 -0.400000 -0.400000  0.333333      2.000000
 -0.200000 -0.400000  0.333333      2.000000
  0.000000 -0.200000  0.333333      2.000000
  0.200000 -0.200000  0.333333      2.000000
  0.400000 -0.200000  0.333333      2.000000
 -0.400000 -0.200000  0.333333      2.000000
 -0.200000 -0.200000  0.333333      2.000000
 
 Following cartesian coordinates:
            Coordinates               Weight
  0.000000  0.000000  0.000000      1.000000
  0.035997  0.000000  0.009795      2.000000
  0.071993  0.000000  0.019590      2.000000
  0.000000  0.035979  0.000000      2.000000
  0.035997  0.035979  0.009795      2.000000
  0.071993  0.035979  0.019590      2.000000
 -0.071993  0.035979 -0.019590      2.000000
 -0.035997  0.035979 -0.009795      2.000000
  0.000000  0.071959  0.000000      2.000000
  0.035997  0.071959  0.009795      2.000000
  0.071993  0.071959  0.019590      2.000000
 -0.071993  0.071959 -0.019590      2.000000
 -0.035997  0.071959 -0.009795      2.000000
  0.000001  0.000000  0.032684      2.000000
  0.035997  0.000000  0.042479      2.000000
  0.071994  0.000000  0.052274      2.000000
 -0.071992  0.000000  0.013094      2.000000
 -0.035996  0.000000  0.022889      2.000000
  0.000001  0.035979  0.032684      2.000000
  0.035997  0.035979  0.042479      2.000000
  0.071994  0.035979  0.052274      2.000000
 -0.071992  0.035979  0.013094      2.000000
 -0.035996  0.035979  0.022889      2.000000
  0.000001  0.071959  0.032684      2.000000
  0.035997  0.071959  0.042479      2.000000
  0.071994  0.071959  0.052274      2.000000
 -0.071992  0.071959  0.013094      2.000000
 -0.035996  0.071959  0.022889      2.000000
  0.000001 -0.071959  0.032684      2.000000
  0.035997 -0.071959  0.042479      2.000000
  0.071994 -0.071959  0.052274      2.000000
 -0.071992 -0.071959  0.013094      2.000000
 -0.035996 -0.071959  0.022889      2.000000
  0.000001 -0.035979  0.032684      2.000000
  0.035997 -0.035979  0.042479      2.000000
  0.071994 -0.035979  0.052274      2.000000
 -0.071992 -0.035979  0.013094      2.000000
 -0.035996 -0.035979  0.022889      2.000000
 
 
 Subroutine IBZKPT_HF returns following result:
 ==============================================
 
 Found     75 k-points in 1st BZ
 the following     75 k-points will be used (e.g. in the exchange kernel)
 Following reciprocal coordinates:   # in IRBZ
  0.000000  0.000000  0.000000    0.01333333   1 t-inv F
  0.200000  0.000000 -0.000000    0.01333333   2 t-inv F
  0.400000  0.000000 -0.000000    0.01333333   3 t-inv F
  0.000000  0.200000  0.000000    0.01333333   4 t-inv F
  0.200000  0.200000 -0.000000    0.01333333   5 t-inv F
  0.400000  0.200000 -0.000000    0.01333333   6 t-inv F
 -0.400000  0.200000  0.000000    0.01333333   7 t-inv F
 -0.200000  0.200000  0.000000    0.01333333   8 t-inv F
  0.000000  0.400000  0.000000    0.01333333   9 t-inv F
  0.200000  0.400000 -0.000000    0.01333333  10 t-inv F
  0.400000  0.400000 -0.000000    0.01333333  11 t-inv F
 -0.400000  0.400000  0.000000    0.01333333  12 t-inv F
 -0.200000  0.400000  0.000000    0.01333333  13 t-inv F
  0.000000  0.000000  0.333333    0.01333333  14 t-inv F
  0.200000  0.000000  0.333333    0.01333333  15 t-inv F
  0.400000  0.000000  0.333333    0.01333333  16 t-inv F
 -0.400000  0.000000  0.333333    0.01333333  17 t-inv F
 -0.200000  0.000000  0.333333    0.01333333  18 t-inv F
  0.000000  0.200000  0.333333    0.01333333  19 t-inv F
  0.200000  0.200000  0.333333    0.01333333  20 t-inv F
  0.400000  0.200000  0.333333    0.01333333  21 t-inv F
 -0.400000  0.200000  0.333333    0.01333333  22 t-inv F
 -0.200000  0.200000  0.333333    0.01333333  23 t-inv F
  0.000000  0.400000  0.333333    0.01333333  24 t-inv F
  0.200000  0.400000  0.333333    0.01333333  25 t-inv F
  0.400000  0.400000  0.333333    0.01333333  26 t-inv F
 -0.400000  0.400000  0.333333    0.01333333  27 t-inv F
 -0.200000  0.400000  0.333333    0.01333333  28 t-inv F
  0.000000 -0.400000  0.333333    0.01333333  29 t-inv F
  0.200000 -0.400000  0.333333    0.01333333  30 t-inv F
  0.400000 -0.400000  0.333333    0.01333333  31 t-inv F
 -0.400000 -0.400000  0.333333    0.01333333  32 t-inv F
 -0.200000 -0.400000  0.333333    0.01333333  33 t-inv F
  0.000000 -0.200000  0.333333    0.01333333  34 t-inv F
  0.200000 -0.200000  0.333333    0.01333333  35 t-inv F
  0.400000 -0.200000  0.333333    0.01333333  36 t-inv F
 -0.400000 -0.200000  0.333333    0.01333333  37 t-inv F
 -0.200000 -0.200000  0.333333    0.01333333  38 t-inv F
 -0.200000  0.000000  0.000000    0.01333333   2 t-inv T
 -0.400000  0.000000  0.000000    0.01333333   3 t-inv T
  0.000000 -0.200000  0.000000    0.01333333   4 t-inv T
 -0.200000 -0.200000  0.000000    0.01333333   5 t-inv T
 -0.400000 -0.200000  0.000000    0.01333333   6 t-inv T
  0.400000 -0.200000 -0.000000    0.01333333   7 t-inv T
  0.200000 -0.200000 -0.000000    0.01333333   8 t-inv T
  0.000000 -0.400000  0.000000    0.01333333   9 t-inv T
 -0.200000 -0.400000  0.000000    0.01333333  10 t-inv T
 -0.400000 -0.400000  0.000000    0.01333333  11 t-inv T
  0.400000 -0.400000 -0.000000    0.01333333  12 t-inv T
  0.200000 -0.400000 -0.000000    0.01333333  13 t-inv T
 -0.000000  0.000000 -0.333333    0.01333333  14 t-inv T
 -0.200000  0.000000 -0.333333    0.01333333  15 t-inv T
 -0.400000  0.000000 -0.333333    0.01333333  16 t-inv T
  0.400000  0.000000 -0.333333    0.01333333  17 t-inv T
  0.200000  0.000000 -0.333333    0.01333333  18 t-inv T
 -0.000000 -0.200000 -0.333333    0.01333333  19 t-inv T
 -0.200000 -0.200000 -0.333333    0.01333333  20 t-inv T
 -0.400000 -0.200000 -0.333333    0.01333333  21 t-inv T
  0.400000 -0.200000 -0.333333    0.01333333  22 t-inv T
  0.200000 -0.200000 -0.333333    0.01333333  23 t-inv T
 -0.000000 -0.400000 -0.333333    0.01333333  24 t-inv T
 -0.200000 -0.400000 -0.333333    0.01333333  25 t-inv T
 -0.400000 -0.400000 -0.333333    0.01333333  26 t-inv T
  0.400000 -0.400000 -0.333333    0.01333333  27 t-inv T
  0.200000 -0.400000 -0.333333    0.01333333  28 t-inv T
 -0.000000  0.400000 -0.333333    0.01333333  29 t-inv T
 -0.200000  0.400000 -0.333333    0.01333333  30 t-inv T
 -0.400000  0.400000 -0.333333    0.01333333  31 t-inv T
  0.400000  0.400000 -0.333333    0.01333333  32 t-inv T
  0.200000  0.400000 -0.333333    0.01333333  33 t-inv T
 -0.000000  0.200000 -0.333333    0.01333333  34 t-inv T
 -0.200000  0.200000 -0.333333    0.01333333  35 t-inv T
 -0.400000  0.200000 -0.333333    0.01333333  36 t-inv T
  0.400000  0.200000 -0.333333    0.01333333  37 t-inv T
  0.200000  0.200000 -0.333333    0.01333333  38 t-inv T


--------------------------------------------------------------------------------------------------------




 Dimension of arrays:
   k-points           NKPTS =     38   k-points in BZ     NKDIM =     38   number of bands    NBANDS=    144
   number of dos      NEDOS =    301   number of ions     NIONS =     22
   non local maximal  LDIM  =      6   non local SUM 2l+1 LMDIM =     18
   total plane-waves  NPLWV = 207360
   max r-space proj   IRMAX =      1   max aug-charges    IRDMAX= 166102
   dimension x,y,z NGX =    48 NGY =   48 NGZ =   90
   dimension x,y,z NGXF=    96 NGYF=   96 NGZF=  180
   support grid    NGXF=   192 NGYF=  192 NGZF=  360
   ions per type =               4   4   6   8
   NGX,Y,Z   is equivalent  to a cutoff of  14.36, 14.36, 14.16 a.u.
   NGXF,Y,Z  is equivalent  to a cutoff of  28.72, 28.71, 28.31 a.u.

 SYSTEM =  unknown system                          
 POSCAR =  # Compound: Li4O4S6Fe8. Old comment: Fe4

 Startparameter for this run:
   NWRITE =      1    write-flag & timer
   PREC   = accura    normal or accurate (medium, high low for compatibility)
   ISTART =      0    job   : 0-new  1-cont  2-samecut
   ICHARG =      2    charge: 1-file 2-atom 10-const
   ISPIN  =      2    spin polarized calculation?
   LNONCOLLINEAR =      F non collinear calculations
   LSORBIT =      F    spin-orbit coupling
   INIWAV =      1    electr: 0-lowe 1-rand  2-diag
   LASPH  =      T    aspherical Exc in radial PAW
   METAGGA=      F    non-selfconsistent MetaGGA calc.

 Electronic Relaxation 1
   ENCUT  =  650.0 eV  47.77 Ry    6.91 a.u.  11.55 11.56 21.97*2*pi/ulx,y,z
   ENINI  =  650.0     initial cutoff
   ENAUG  =  628.9 eV  augmentation charge cutoff
   NELM   =    200;   NELMIN=  8; NELMDL= -5     # of ELM steps 
   EDIFF  = 0.1E-07   stopping-criterion for ELM
   LREAL  =      F    real-space projection
   NLSPLINE    = F    spline interpolate recip. space projectors
   LCOMPAT=      F    compatible to vasp.4.4
   GGA_COMPAT  = T    GGA compatible to vasp.4.4-vasp.4.6
   LMAXPAW     = -100 max onsite density
   LMAXMIX     =    4 max onsite mixed and CHGCAR
   VOSKOWN=      0    Vosko Wilk Nusair interpolation
   ROPT   =    0.00000   0.00000   0.00000   0.00000
 Ionic relaxation
   EDIFFG = 0.1E-06   stopping-criterion for IOM
   NSW    =      0    number of steps for IOM
   NBLOCK =      1;   KBLOCK =      1    inner block; outer block 
   IBRION =     -1    ionic relax: 0-MD 1-quasi-New 2-CG
   NFREE  =      0    steps in history (QN), initial steepest desc. (CG)
   ISIF   =      2    stress and relaxation
   IWAVPR =     10    prediction:  0-non 1-charg 2-wave 3-comb
   ISYM   =      0    0-nonsym 1-usesym 2-fastsym
   LCORR  =      T    Harris-Foulkes like correction to forces

   POTIM  = 0.5000    time-step for ionic-motion
   TEIN   =    0.0    initial temperature
   TEBEG  =    0.0;   TEEND  =   0.0 temperature during run
   SMASS  =  -3.00    Nose mass-parameter (am)
   estimated Nose-frequenzy (Omega)   =  0.10E-29 period in steps =****** mass=  -0.705E-27a.u.
   SCALEE = 1.0000    scale energy and forces
   NPACO  =    256;   APACO  = 16.0  distance and # of slots for P.C.
   PSTRESS=    0.0 pullay stress

  Mass of Ions in am
   POMASS =   7.01 16.00 32.07 55.85
  Ionic Valenz
   ZVAL   =   3.00  6.00  6.00 14.00
  Atomic Wigner-Seitz radii
   RWIGS  =  -1.00 -1.00 -1.00 -1.00
  virtual crystal weights 
   VCA    =   1.00  1.00  1.00  1.00
   NELECT =     184.0000    total number of electrons
   NUPDOWN=      -1.0000    fix difference up-down

 DOS related values:
   EMIN   =  10.00;   EMAX   =-10.00  energy-range for DOS
   EFERMI =   0.00
   ISMEAR =     0;   SIGMA  =   0.05  broadening in eV -4-tet -1-fermi 0-gaus

 Electronic relaxation 2 (details)
   IALGO  =     38    algorithm
   LDIAG  =      T    sub-space diagonalisation (order eigenvalues)
   LSUBROT=      F    optimize rotation matrix (better conditioning)
   TURBO    =      0    0=normal 1=particle mesh
   IRESTART =      0    0=no restart 2=restart with 2 vectors
   NREBOOT  =      0    no. of reboots
   NMIN     =      0    reboot dimension
   EREF     =   0.00    reference energy to select bands
   IMIX   =      4    mixing-type and parameters
     AMIX     =   0.40;   BMIX     =  1.00
     AMIX_MAG =   1.60;   BMIX_MAG =  1.00
     AMIN     =   0.10
     WC   =   100.;   INIMIX=   1;  MIXPRE=   1;  MAXMIX= -45

 Intra band minimization:
   WEIMIN = 0.0000     energy-eigenvalue tresh-hold
   EBREAK =  0.17E-10  absolut break condition
   DEPER  =   0.30     relativ break condition  

   TIME   =   0.40     timestep for ELM

  volume/ion in A,a.u.               =      14.32        96.62
  Fermi-wavevector in a.u.,A,eV,Ry     =   1.368520  2.586127 25.481613  1.872846
  Thomas-Fermi vector in A             =   2.494476
 
 Write flags
   LWAVE        =      F    write WAVECAR
   LDOWNSAMPLE  =      F    k-point downsampling of WAVECAR
   LCHARG       =      T    write CHGCAR
   LVTOT        =      F    write LOCPOT, total local potential
   LVHAR        =      F    write LOCPOT, Hartree potential only
   LELF         =      F    write electronic localiz. function (ELF)
   LORBIT       =      0    0 simple, 1 ext, 2 COOP (PROOUT), +10 PAW based schemes


 Dipole corrections
   LMONO  =      F    monopole corrections only (constant potential shift)
   LDIPOL =      F    correct potential (dipole corrections)
   IDIPOL =      0    1-x, 2-y, 3-z, 4-all directions 
   EPSILON=  1.0000000 bulk dielectric constant

 LDA+U is selected, type is set to LDAUTYPE =  2
   angular momentum for each species LDAUL =    -1   -1   -1    2
   U (eV)           for each species LDAUU =   0.0  0.0  0.0  4.0
   J (eV)           for each species LDAUJ =   0.0  0.0  0.0  0.0
 Exchange correlation treatment:
   GGA     =    PE    GGA type
   LEXCH   =     8    internal setting for exchange type
   VOSKOWN=      0    Vosko Wilk Nusair interpolation
   LHFCALC =     F    Hartree Fock is set to
   LHFONE  =     F    Hartree Fock one center treatment
   AEXX    =    0.0000 exact exchange contribution

 Linear response parameters
   LEPSILON=     T    determine dielectric tensor
   LRPA    =     F    only Hartree local field effects (RPA)
   LNABLA  =     F    use nabla operator in PAW spheres
   LVEL    =     F    velocity operator in full k-point grid
   LINTERFAST=   F  fast interpolation
   KINTER  =     0    interpolate to denser k-point grid
   CSHIFT  =0.1000    complex shift for real part using Kramers Kronig
   OMEGAMAX=  -1.0    maximum frequency
   DEG_THRESHOLD= 0.2000000E-02 threshold for treating states as degnerate
   RTIME   =   -0.100 relaxation time in fs
  (WPLASMAI=    0.000 imaginary part of plasma frequency in eV, 0.658/RTIME)
   DFIELD  = 0.0000000 0.0000000 0.0000000 field for delta impulse in time
 
 Orbital magnetization related:
   ORBITALMAG=     F  switch on orbital magnetization
   LCHIMAG   =     F  perturbation theory with respect to B field
   DQ        =  0.001000  dq finite difference perturbation B field
   LLRAUG    =     F  two centre corrections for induced B field



--------------------------------------------------------------------------------------------------------


 Static calculation
 charge density and potential will be updated during run
 spin polarized calculation
 Variant of blocked Davidson
 Davidson routine will perform the subspace rotation
 perform sub-space diagonalisation
    after iterative eigenvector-optimisation
 modified Broyden-mixing scheme, WC =      100.0
 initial mixing is a Kerker type mixing with AMIX =  0.4000 and BMIX =      1.0000
 Hartree-type preconditioning will be used
 using additional bands           52
 reciprocal scheme for non local part
 use partial core corrections
 calculate Harris-corrections to forces 
   (improved forces if not selfconsistent)
 use gradient corrections 
 use of overlap-Matrix (Vanderbilt PP)
 Gauss-broadening in eV      SIGMA  =   0.05


--------------------------------------------------------------------------------------------------------


  energy-cutoff  :      650.00
  volume of cell :      314.98
      direct lattice vectors                 reciprocal lattice vectors
     5.556116870  0.000000000 -0.000145170     0.179983095  0.000000000  0.048974047
     0.000000000  5.558725970  0.000000000     0.000000000  0.179897337  0.000000000
    -2.775108980  0.000000000 10.198722210     0.000002562  0.000000000  0.098052196

  length of vectors
     5.556116872  5.558725970 10.569539468     0.186527134  0.179897337  0.098052196


 
 k-points in units of 2pi/SCALE and weight: # No comment                            
   0.00000000  0.00000000  0.00000000       0.013
   0.03599662  0.00000000  0.00979481       0.027
   0.07199324  0.00000000  0.01958962       0.027
   0.00000000  0.03597947  0.00000000       0.027
   0.03599662  0.03597947  0.00979481       0.027
   0.07199324  0.03597947  0.01958962       0.027
  -0.07199324  0.03597947 -0.01958962       0.027
  -0.03599662  0.03597947 -0.00979481       0.027
   0.00000000  0.07195893  0.00000000       0.027
   0.03599662  0.07195893  0.00979481       0.027
   0.07199324  0.07195893  0.01958962       0.027
  -0.07199324  0.07195893 -0.01958962       0.027
  -0.03599662  0.07195893 -0.00979481       0.027
   0.00000085  0.00000000  0.03268407       0.027
   0.03599747  0.00000000  0.04247887       0.027
   0.07199409  0.00000000  0.05227368       0.027
  -0.07199238  0.00000000  0.01309445       0.027
  -0.03599577  0.00000000  0.02288926       0.027
   0.00000085  0.03597947  0.03268407       0.027
   0.03599747  0.03597947  0.04247887       0.027
   0.07199409  0.03597947  0.05227368       0.027
  -0.07199238  0.03597947  0.01309445       0.027
  -0.03599577  0.03597947  0.02288926       0.027
   0.00000085  0.07195893  0.03268407       0.027
   0.03599747  0.07195893  0.04247887       0.027
   0.07199409  0.07195893  0.05227368       0.027
  -0.07199238  0.07195893  0.01309445       0.027
  -0.03599577  0.07195893  0.02288926       0.027
   0.00000085 -0.07195893  0.03268407       0.027
   0.03599747 -0.07195893  0.04247887       0.027
   0.07199409 -0.07195893  0.05227368       0.027
  -0.07199238 -0.07195893  0.01309445       0.027
  -0.03599577 -0.07195893  0.02288926       0.027
   0.00000085 -0.03597947  0.03268407       0.027
   0.03599747 -0.03597947  0.04247887       0.027
   0.07199409 -0.03597947  0.05227368       0.027
  -0.07199238 -0.03597947  0.01309445       0.027
  -0.03599577 -0.03597947  0.02288926       0.027
 
 k-points in reciprocal lattice and weights: # No comment                            
   0.00000000  0.00000000  0.00000000       0.013
   0.20000000  0.00000000 -0.00000000       0.027
   0.40000000  0.00000000 -0.00000000       0.027
   0.00000000  0.20000000  0.00000000       0.027
   0.20000000  0.20000000 -0.00000000       0.027
   0.40000000  0.20000000 -0.00000000       0.027
  -0.40000000  0.20000000  0.00000000       0.027
  -0.20000000  0.20000000  0.00000000       0.027
   0.00000000  0.40000000  0.00000000       0.027
   0.20000000  0.40000000 -0.00000000       0.027
   0.40000000  0.40000000 -0.00000000       0.027
  -0.40000000  0.40000000  0.00000000       0.027
  -0.20000000  0.40000000  0.00000000       0.027
   0.00000000  0.00000000  0.33333333       0.027
   0.20000000  0.00000000  0.33333333       0.027
   0.40000000  0.00000000  0.33333333       0.027
  -0.40000000  0.00000000  0.33333333       0.027
  -0.20000000  0.00000000  0.33333333       0.027
   0.00000000  0.20000000  0.33333333       0.027
   0.20000000  0.20000000  0.33333333       0.027
   0.40000000  0.20000000  0.33333333       0.027
  -0.40000000  0.20000000  0.33333333       0.027
  -0.20000000  0.20000000  0.33333333       0.027
   0.00000000  0.40000000  0.33333333       0.027
   0.20000000  0.40000000  0.33333333       0.027
   0.40000000  0.40000000  0.33333333       0.027
  -0.40000000  0.40000000  0.33333333       0.027
  -0.20000000  0.40000000  0.33333333       0.027
   0.00000000 -0.40000000  0.33333333       0.027
   0.20000000 -0.40000000  0.33333333       0.027
   0.40000000 -0.40000000  0.33333333       0.027
  -0.40000000 -0.40000000  0.33333333       0.027
  -0.20000000 -0.40000000  0.33333333       0.027
   0.00000000 -0.20000000  0.33333333       0.027
   0.20000000 -0.20000000  0.33333333       0.027
   0.40000000 -0.20000000  0.33333333       0.027
  -0.40000000 -0.20000000  0.33333333       0.027
  -0.20000000 -0.20000000  0.33333333       0.027
 
 position of ions in fractional coordinates (direct lattice) 
   0.57789939  0.93867819  0.15583616
   0.09293943  0.43869952  0.18586770
   0.90706057  0.93869952  0.81413230
   0.42210061  0.43867819  0.84416384
   0.15309942  0.19061991  0.80250593
   0.64940933  0.68676350  0.80250383
   0.35059067  0.18676350  0.19749617
   0.84690058  0.69061991  0.19749407
   0.43736926  0.69046790  0.37102476
   0.93363320  0.18689794  0.37102399
   0.06636680  0.68689794  0.62897601
   0.56263074  0.19046790  0.62897524
   0.24878558  0.68868612  0.00000412
   0.75121442  0.18868612  0.99999588
   0.07648851  0.21269598  0.60632306
   0.52985425  0.66465302  0.60632763
   0.47014575  0.16465302  0.39367237
   0.92351149  0.71269598  0.39367694
   0.07696796  0.93872808  0.15397331
   0.57723315  0.43871380  0.15447525
   0.42276685  0.93871380  0.84552475
   0.92303204  0.43872808  0.84602669
 
 position of ions in cartesian coordinates  (Angst):
   2.77841422  5.21785483  1.58924581
   0.00057921  2.43861041  1.89559955
   2.78042868  5.21797340  8.30297749
   0.00259367  2.43849185  8.60933123
  -1.37640314  1.05960384  8.18451283
   1.38115855  3.81753010  8.18441936
   1.39984934  1.03816712  2.01415768
   4.15741103  3.83896683  2.01406421
   1.40044058  3.83812185  3.78391497
   4.15774317  1.03891443  3.78383507
  -1.37673528  3.81827742  6.41474197
   1.38056731  1.05875886  6.41466207
   1.38227032  3.82821742  0.00000590
   1.39873757  1.04885444 10.19857114
  -1.25763347  1.18231867  6.18370935
   1.26130689  3.69462400  6.18369015
   1.51970100  0.91526102  4.01488689
   4.03864136  3.96168165  4.01486769
   0.00035027  5.21813216  1.57031984
   2.77848919  2.43868979  1.57536637
   0.00251870  5.21805278  8.62321067
   2.78065762  2.43876917  8.62825720
 


--------------------------------------------------------------------------------------------------------


 k-point  1 :   0.0000 0.0000 0.0000  plane waves:   11843
 k-point  2 :   0.2000 0.0000-0.0000  plane waves:   11844
 k-point  3 :   0.4000 0.0000-0.0000  plane waves:   11853
 k-point  4 :   0.0000 0.2000 0.0000  plane waves:   11853
 k-point  5 :   0.2000 0.2000-0.0000  plane waves:   11868
 k-point  6 :   0.4000 0.2000-0.0000  plane waves:   11845
 k-point  7 :  -0.4000 0.2000 0.0000  plane waves:   11845
 k-point  8 :  -0.2000 0.2000 0.0000  plane waves:   11868
 k-point  9 :   0.0000 0.4000 0.0000  plane waves:   11839
 k-point 10 :   0.2000 0.4000-0.0000  plane waves:   11843
 k-point 11 :   0.4000 0.4000-0.0000  plane waves:   11832
 k-point 12 :  -0.4000 0.4000 0.0000  plane waves:   11832
 k-point 13 :  -0.2000 0.4000 0.0000  plane waves:   11843
 k-point 14 :   0.0000 0.0000 0.3333  plane waves:   11878
 k-point 15 :   0.2000 0.0000 0.3333  plane waves:   11888
 k-point 16 :   0.4000 0.0000 0.3333  plane waves:   11844
 k-point 17 :  -0.4000 0.0000 0.3333  plane waves:   11847
 k-point 18 :  -0.2000 0.0000 0.3333  plane waves:   11872
 k-point 19 :   0.0000 0.2000 0.3333  plane waves:   11866
 k-point 20 :   0.2000 0.2000 0.3333  plane waves:   11860
 k-point 21 :   0.4000 0.2000 0.3333  plane waves:   11859
 k-point 22 :  -0.4000 0.2000 0.3333  plane waves:   11838
 k-point 23 :  -0.2000 0.2000 0.3333  plane waves:   11861
 k-point 24 :   0.0000 0.4000 0.3333  plane waves:   11841
 k-point 25 :   0.2000 0.4000 0.3333  plane waves:   11853
 k-point 26 :   0.4000 0.4000 0.3333  plane waves:   11842
 k-point 27 :  -0.4000 0.4000 0.3333  plane waves:   11828
 k-point 28 :  -0.2000 0.4000 0.3333  plane waves:   11845
 k-point 29 :   0.0000-0.4000 0.3333  plane waves:   11841
 k-point 30 :   0.2000-0.4000 0.3333  plane waves:   11853
 k-point 31 :   0.4000-0.4000 0.3333  plane waves:   11842
 k-point 32 :  -0.4000-0.4000 0.3333  plane waves:   11828
 k-point 33 :  -0.2000-0.4000 0.3333  plane waves:   11845
 k-point 34 :   0.0000-0.2000 0.3333  plane waves:   11866
 k-point 35 :   0.2000-0.2000 0.3333  plane waves:   11860
 k-point 36 :   0.4000-0.2000 0.3333  plane waves:   11859
 k-point 37 :  -0.4000-0.2000 0.3333  plane waves:   11838
 k-point 38 :  -0.2000-0.2000 0.3333  plane waves:   11861

 maximum and minimum number of plane-waves per node :     11888    11828

 maximum number of plane-waves:     11888
 maximum index in each direction: 
   IXMAX=   11   IYMAX=   11   IZMAX=   21
   IXMIN=  -11   IYMIN=  -11   IZMIN=  -22


 serial   3D FFT for wavefunctions
 parallel 3D FFT for charge:
    minimum data exchange during FFTs selected (reduces bandwidth)


 total amount of memory used by VASP MPI-rank0   418533. kBytes
=======================================================================

   base      :      30000. kBytes
   nonl-proj :     264744. kBytes
   fftplans  :      10969. kBytes
   grid      :      23359. kBytes
   one-center:        684. kBytes
   wavefun   :      88777. kBytes
 
     INWAV:  cpu time    0.0000: real time    0.0000
 Broyden mixing: mesh for mixing (old mesh)
   NGX = 23   NGY = 23   NGZ = 43
  (NGX  = 96   NGY  = 96   NGZ  =180)
  gives a total of  22747 points

 initial charge density was supplied:
 charge density of overlapping atoms calculated
 number of electron     184.0000000 magnetization      48.4000000
 keeping initial charge density in first step


--------------------------------------------------------------------------------------------------------


 Maximum index for augmentation-charges         7108 (set IRDMAX)


--------------------------------------------------------------------------------------------------------


 First call to EWALD:  gamma=   0.261
 Maximum number of real-space cells 3x 3x 2
 Maximum number of reciprocal cells 2x 2x 4

    FEWALD:  cpu time    0.0022: real time    0.0024


--------------------------------------- Iteration      1(   1)  ---------------------------------------


    POTLOK:  cpu time    0.1188: real time    0.1874
    SETDIJ:  cpu time    0.5725: real time    0.6343
     EDDAV:  cpu time   33.0248: real time   33.4487
       DOS:  cpu time    0.0115: real time    0.0147
    --------------------------------------------
      LOOP:  cpu time   33.7276: real time   34.2853

 eigenvalue-minimisations  : 21888
 total energy-change (2. order) : 0.2451854E+04  (-0.1089927E+05)
 number of electron     184.0000000 magnetization      48.4000000
 augmentation part      184.0000000 magnetization      48.4000000

 Free energy of the ion-electron system (eV)
  ---------------------------------------------------
  alpha Z        PSCENC =       578.62414157
  Ewald energy   TEWEN  =    -14430.75942168
  -Hartree energ DENC   =     -7822.23439708
  -exchange      EXHF   =         0.00000000
  -V(xc)+E(xc)   XCENC  =       816.49549695
  PAW double counting   =     19001.18099066   -19697.14758864
  entropy T*S    EENTRO =        -0.01152717
  eigenvalues    EBANDS =       144.83686941
  atomic energy  EATOM  =     23860.86992739
  Solvation  Ediel_sol  =         0.00000000
  ---------------------------------------------------
  free energy    TOTEN  =      2451.85449142 eV

  energy without entropy =     2451.86601859  energy(sigma->0) =     2451.86025500


--------------------------------------------------------------------------------------------------------




--------------------------------------- Iteration      1(   2)  ---------------------------------------


     EDDAV:  cpu time   31.5100: real time   31.8205
       DOS:  cpu time    0.0022: real time    0.0022
    --------------------------------------------
      LOOP:  cpu time   31.5123: real time   31.8227

 eigenvalue-minimisations  : 21888
 total energy-change (2. order) :-0.2308881E+04  (-0.2149150E+04)
 number of electron     184.0000000 magnetization      48.4000000
 augmentation part      184.0000000 magnetization      48.4000000

 Free energy of the ion-electron system (eV)
  ---------------------------------------------------
  alpha Z        PSCENC =       578.62414157
  Ewald energy   TEWEN  =    -14430.75942168
  -Hartree energ DENC   =     -7822.23439708
  -exchange      EXHF   =         0.00000000
  -V(xc)+E(xc)   XCENC  =       816.49549695
  PAW double counting   =     19001.18099066   -19697.14758864
  entropy T*S    EENTRO =        -0.01495105
  eigenvalues    EBANDS =     -2164.04037888
  atomic energy  EATOM  =     23860.86992739
  Solvation  Ediel_sol  =         0.00000000
  ---------------------------------------------------
  free energy    TOTEN  =       142.97381925 eV

  energy without entropy =      142.98877029  energy(sigma->0) =      142.98129477


--------------------------------------------------------------------------------------------------------




--------------------------------------- Iteration      1(   3)  ---------------------------------------


     EDDAV:  cpu time   34.5376: real time   35.0230
       DOS:  cpu time    0.0022: real time    0.0022
    --------------------------------------------
      LOOP:  cpu time   34.5398: real time   35.0251

 eigenvalue-minimisations  : 24120
 total energy-change (2. order) :-0.2583231E+03  (-0.2513747E+03)
 number of electron     184.0000000 magnetization      48.4000000
 augmentation part      184.0000000 magnetization      48.4000000

 Free energy of the ion-electron system (eV)
  ---------------------------------------------------
  alpha Z        PSCENC =       578.62414157
  Ewald energy   TEWEN  =    -14430.75942168
  -Hartree energ DENC   =     -7822.23439708
  -exchange      EXHF   =         0.00000000
  -V(xc)+E(xc)   XCENC  =       816.49549695
  PAW double counting   =     19001.18099066   -19697.14758864
  entropy T*S    EENTRO =        -0.01825825
  eigenvalues    EBANDS =     -2422.36015936
  atomic energy  EATOM  =     23860.86992739
  Solvation  Ediel_sol  =         0.00000000
  ---------------------------------------------------
  free energy    TOTEN  =      -115.34926844 eV

  energy without entropy =     -115.33101019  energy(sigma->0) =     -115.34013931


--------------------------------------------------------------------------------------------------------




--------------------------------------- Iteration      1(   4)  ---------------------------------------


     EDDAV:  cpu time   46.3260: real time   46.8690
       DOS:  cpu time    0.0020: real time    0.0020
    --------------------------------------------
      LOOP:  cpu time   46.3280: real time   46.8710

 eigenvalue-minimisations  : 34848
 total energy-change (2. order) :-0.1856943E+02  (-0.1832265E+02)
 number of electron     184.0000000 magnetization      48.4000000
 augmentation part      184.0000000 magnetization      48.4000000

 Free energy of the ion-electron system (eV)
  ---------------------------------------------------
  alpha Z        PSCENC =       578.62414157
  Ewald energy   TEWEN  =    -14430.75942168
  -Hartree energ DENC   =     -7822.23439708
  -exchange      EXHF   =         0.00000000
  -V(xc)+E(xc)   XCENC  =       816.49549695
  PAW double counting   =     19001.18099066   -19697.14758864
  entropy T*S    EENTRO =        -0.02201929
  eigenvalues    EBANDS =     -2440.92582812
  atomic energy  EATOM  =     23860.86992739
  Solvation  Ediel_sol  =         0.00000000
  ---------------------------------------------------
  free energy    TOTEN  =      -133.91869823 eV

  energy without entropy =     -133.89667894  energy(sigma->0) =     -133.90768859


--------------------------------------------------------------------------------------------------------




--------------------------------------- Iteration      1(   5)  ---------------------------------------


     EDDAV:  cpu time   39.7441: real time   40.1358
       DOS:  cpu time    0.0024: real time    0.0025
    CHARGE:  cpu time    1.6322: real time    1.6433
    MIXING:  cpu time    0.0047: real time    0.0048
    --------------------------------------------
      LOOP:  cpu time   41.3834: real time   41.7864

 eigenvalue-minimisations  : 29640
 total energy-change (2. order) :-0.5155286E+00  (-0.5121186E+00)
 number of electron     184.0000004 magnetization      42.0834768
 augmentation part       64.6889277 magnetization      30.5988441

 Broyden mixing:
  rms(total) = 0.48955E+01    rms(broyden)= 0.48955E+01
  rms(prec ) = 0.59378E+01
  weight for this iteration     100.00

 Free energy of the ion-electron system (eV)
  ---------------------------------------------------
  alpha Z        PSCENC =       578.62414157
  Ewald energy   TEWEN  =    -14430.75942168
  -Hartree energ DENC   =     -7822.23439708
  -exchange      EXHF   =         0.00000000
  -V(xc)+E(xc)   XCENC  =       816.49549695
  PAW double counting   =     19001.18099066   -19697.14758864
  entropy T*S    EENTRO =        -0.02076156
  eigenvalues    EBANDS =     -2441.44261442
  atomic energy  EATOM  =     23860.86992739
  Solvation  Ediel_sol  =         0.00000000
  ---------------------------------------------------
  free energy    TOTEN  =      -134.43422680 eV

  energy without entropy =     -134.41346524  energy(sigma->0) =     -134.42384602


--------------------------------------------------------------------------------------------------------




--------------------------------------- Iteration      1(   6)  ---------------------------------------


    POTLOK:  cpu time    0.0986: real time    0.1003
    SETDIJ:  cpu time    0.6016: real time    0.6244
     EDDAV:  cpu time   38.5750: real time   39.3630
       DOS:  cpu time    0.0021: real time    0.0021
    CHARGE:  cpu time    1.6445: real time    1.6492
    MIXING:  cpu time    0.0035: real time    0.0061
    --------------------------------------------
      LOOP:  cpu time   40.9252: real time   41.7451

 eigenvalue-minimisations  : 27792
 total energy-change (2. order) : 0.1836188E+02  (-0.1610621E+02)
 number of electron     184.0000004 magnetization      40.1698305
 augmentation part       71.9172898 magnetization      28.6839229

 Broyden mixing:
  rms(total) = 0.60276E+01    rms(broyden)= 0.60275E+01
  rms(prec ) = 0.69087E+01
  weight for this iteration     100.00

 eigenvalues of (default mixing * dielectric matrix)
  average eigenvalue GAMMA=   0.3261
  0.3261

 Free energy of the ion-electron system (eV)
  ---------------------------------------------------
  alpha Z        PSCENC =       578.62414157
  Ewald energy   TEWEN  =    -14430.75942168
  -Hartree energ DENC   =     -7452.52631627
  -exchange      EXHF   =         0.00000000
  -V(xc)+E(xc)   XCENC  =       804.53199407
  PAW double counting   =     19615.22626300   -20256.87489908
  entropy T*S    EENTRO =        -0.03741663
  eigenvalues    EBANDS =     -2835.12661972
  atomic energy  EATOM  =     23860.86992739
  Solvation  Ediel_sol  =         0.00000000
  ---------------------------------------------------
  free energy    TOTEN  =      -116.07234735 eV

  energy without entropy =     -116.03493072  energy(sigma->0) =     -116.05363904


--------------------------------------------------------------------------------------------------------




--------------------------------------- Iteration      1(   7)  ---------------------------------------


    POTLOK:  cpu time    0.0946: real time    0.0971
    SETDIJ:  cpu time    0.6212: real time    0.6220
     EDDAV:  cpu time   36.4784: real time   37.1361
       DOS:  cpu time    0.0022: real time    0.0022
    CHARGE:  cpu time    1.6354: real time    1.6614
    MIXING:  cpu time    0.0032: real time    0.0064
    --------------------------------------------
      LOOP:  cpu time   38.8350: real time   39.5252

 eigenvalue-minimisations  : 25008
 total energy-change (2. order) :-0.3655661E+01  (-0.1249152E+02)
 number of electron     184.0000004 magnetization      38.3690721
 augmentation part       70.5678477 magnetization      27.2090513

 Broyden mixing:
  rms(total) = 0.50863E+01    rms(broyden)= 0.50860E+01
  rms(prec ) = 0.59747E+01
  weight for this iteration     100.00

 eigenvalues of (default mixing * dielectric matrix)
  average eigenvalue GAMMA=   0.4307
  0.5823  0.2790

 Free energy of the ion-electron system (eV)
  ---------------------------------------------------
  alpha Z        PSCENC =       578.62414157
  Ewald energy   TEWEN  =    -14430.75942168
  -Hartree energ DENC   =     -7532.17059241
  -exchange      EXHF   =         0.00000000
  -V(xc)+E(xc)   XCENC  =       805.44066729
  PAW double counting   =     20365.48802999   -21045.24087886
  entropy T*S    EENTRO =        -0.01426842
  eigenvalues    EBANDS =     -2721.96561345
  atomic energy  EATOM  =     23860.86992739
  Solvation  Ediel_sol  =         0.00000000
  ---------------------------------------------------
  free energy    TOTEN  =      -119.72800858 eV

  energy without entropy =     -119.71374016  energy(sigma->0) =     -119.72087437


--------------------------------------------------------------------------------------------------------




--------------------------------------- Iteration      1(   8)  ---------------------------------------


    POTLOK:  cpu time    0.0952: real time    0.0984
    SETDIJ:  cpu time    0.6279: real time    0.6336
     EDDAV:  cpu time   37.2731: real time   37.9396
       DOS:  cpu time    0.0023: real time    0.0023
    CHARGE:  cpu time    1.6897: real time    1.6908
    MIXING:  cpu time    0.0048: real time    2.0208
    --------------------------------------------
      LOOP:  cpu time   39.6930: real time   42.3854

 eigenvalue-minimisations  : 26232
 total energy-change (2. order) : 0.4736171E+01  (-0.4106749E+01)
 number of electron     184.0000004 magnetization      35.6700152
 augmentation part       69.5118996 magnetization      24.8952549

 Broyden mixing:
  rms(total) = 0.19913E+01    rms(broyden)= 0.19911E+01
  rms(prec ) = 0.20758E+01
  weight for this iteration     100.00

 eigenvalues of (default mixing * dielectric matrix)
  average eigenvalue GAMMA=   0.5459
  0.7017  0.7017  0.2342

 Free energy of the ion-electron system (eV)
  ---------------------------------------------------
  alpha Z        PSCENC =       578.62414157
  Ewald energy   TEWEN  =    -14430.75942168
  -Hartree energ DENC   =     -7581.22012598
  -exchange      EXHF   =         0.00000000
  -V(xc)+E(xc)   XCENC  =       805.99657848
  PAW double counting   =     21032.62324034   -21734.17083617
  entropy T*S    EENTRO =        -0.03064648
  eigenvalues    EBANDS =     -2646.92469490
  atomic energy  EATOM  =     23860.86992739
  Solvation  Ediel_sol  =         0.00000000
  ---------------------------------------------------
  free energy    TOTEN  =      -114.99183743 eV

  energy without entropy =     -114.96119096  energy(sigma->0) =     -114.97651419


--------------------------------------------------------------------------------------------------------




--------------------------------------- Iteration      1(   9)  ---------------------------------------


    POTLOK:  cpu time    0.0992: real time    0.1000
    SETDIJ:  cpu time    0.5934: real time    0.6229
     EDDAV:  cpu time   38.0977: real time   38.7531
       DOS:  cpu time    0.0020: real time    0.0020
    CHARGE:  cpu time    1.6323: real time    1.6467
    MIXING:  cpu time    0.0025: real time    0.0025
    --------------------------------------------
      LOOP:  cpu time   40.4271: real time   41.1273

 eigenvalue-minimisations  : 27384
 total energy-change (2. order) :-0.4225854E+01  (-0.1982837E+01)
 number of electron     184.0000004 magnetization      33.5565703
 augmentation part       69.5575971 magnetization      22.7077485

 Broyden mixing:
  rms(total) = 0.15514E+01    rms(broyden)= 0.15512E+01
  rms(prec ) = 0.16143E+01
  weight for this iteration     100.00

 eigenvalues of (default mixing * dielectric matrix)
  average eigenvalue GAMMA=   0.6698
  1.0845  0.2365  0.8314  0.5267

 Free energy of the ion-electron system (eV)
  ---------------------------------------------------
  alpha Z        PSCENC =       578.62414157
  Ewald energy   TEWEN  =    -14430.75942168
  -Hartree energ DENC   =     -7578.46661578
  -exchange      EXHF   =         0.00000000
  -V(xc)+E(xc)   XCENC  =       806.38869784
  PAW double counting   =     21832.02445060   -22537.27057493
  entropy T*S    EENTRO =        -0.00035492
  eigenvalues    EBANDS =     -2650.62794152
  atomic energy  EATOM  =     23860.86992739
  Solvation  Ediel_sol  =         0.00000000
  ---------------------------------------------------
  free energy    TOTEN  =      -119.21769142 eV

  energy without entropy =     -119.21733650  energy(sigma->0) =     -119.21751396


--------------------------------------------------------------------------------------------------------




--------------------------------------- Iteration      1(  10)  ---------------------------------------


    POTLOK:  cpu time    0.0940: real time    0.0964
    SETDIJ:  cpu time    0.6201: real time    0.6212
     EDDAV:  cpu time   37.2381: real time   37.7898
       DOS:  cpu time    0.0011: real time    0.0011
    CHARGE:  cpu time    1.6210: real time    1.6231
    MIXING:  cpu time    0.0034: real time    0.0036
    --------------------------------------------
      LOOP:  cpu time   39.5777: real time   40.1353

 eigenvalue-minimisations  : 25752
 total energy-change (2. order) :-0.2101983E+01  (-0.2350283E+00)
 number of electron     184.0000004 magnetization      32.3505973
 augmentation part       69.5293933 magnetization      21.4014392

 Broyden mixing:
  rms(total) = 0.85268E+00    rms(broyden)= 0.85264E+00
  rms(prec ) = 0.88687E+00
  weight for this iteration     100.00

 eigenvalues of (default mixing * dielectric matrix)
  average eigenvalue GAMMA=   0.7985
  1.9447  0.2367  0.6754  0.5679  0.5679

 Free energy of the ion-electron system (eV)
  ---------------------------------------------------
  alpha Z        PSCENC =       578.62414157
  Ewald energy   TEWEN  =    -14430.75942168
  -Hartree energ DENC   =     -7580.85127697
  -exchange      EXHF   =         0.00000000
  -V(xc)+E(xc)   XCENC  =       806.90487177
  PAW double counting   =     22511.07153841   -23220.11696610
  entropy T*S    EENTRO =        -0.00000000
  eigenvalues    EBANDS =     -2647.06248847
  atomic energy  EATOM  =     23860.86992739
  Solvation  Ediel_sol  =         0.00000000
  ---------------------------------------------------
  free energy    TOTEN  =      -121.31967408 eV

  energy without entropy =     -121.31967408  energy(sigma->0) =     -121.31967408


--------------------------------------------------------------------------------------------------------




--------------------------------------- Iteration      1(  11)  ---------------------------------------


    POTLOK:  cpu time    0.0940: real time    0.0964
    SETDIJ:  cpu time    0.6206: real time    0.6212
     EDDAV:  cpu time   38.8549: real time   39.5670
       DOS:  cpu time    0.0012: real time    0.0012
    CHARGE:  cpu time    1.6461: real time    1.6482
    MIXING:  cpu time    0.0030: real time    0.0030
    --------------------------------------------
      LOOP:  cpu time   41.2198: real time   41.9370

 eigenvalue-minimisations  : 27360
 total energy-change (2. order) :-0.7051312E+00  (-0.6662965E-01)
 number of electron     184.0000004 magnetization      32.0250533
 augmentation part       69.4475279 magnetization      21.0570828

 Broyden mixing:
  rms(total) = 0.33230E+00    rms(broyden)= 0.33229E+00
  rms(prec ) = 0.35572E+00
  weight for this iteration     100.00

 eigenvalues of (default mixing * dielectric matrix)
  average eigenvalue GAMMA=   0.8662
  2.1526  0.2366  0.7759  0.7759  0.6935  0.5630

 Free energy of the ion-electron system (eV)
  ---------------------------------------------------
  alpha Z        PSCENC =       578.62414157
  Ewald energy   TEWEN  =    -14430.75942168
  -Hartree energ DENC   =     -7585.12418145
  -exchange      EXHF   =         0.00000000
  -V(xc)+E(xc)   XCENC  =       807.05624792
  PAW double counting   =     22948.32924031   -23663.72453430
  entropy T*S    EENTRO =        -0.00000000
  eigenvalues    EBANDS =     -2637.29622506
  atomic energy  EATOM  =     23860.86992739
  Solvation  Ediel_sol  =         0.00000000
  ---------------------------------------------------
  free energy    TOTEN  =      -122.02480529 eV

  energy without entropy =     -122.02480529  energy(sigma->0) =     -122.02480529


--------------------------------------------------------------------------------------------------------




--------------------------------------- Iteration      1(  12)  ---------------------------------------


    POTLOK:  cpu time    0.0936: real time    0.0988
    SETDIJ:  cpu time    0.6188: real time    0.6207
     EDDAV:  cpu time   38.6531: real time   39.2812
       DOS:  cpu time    0.0024: real time    0.0024
    CHARGE:  cpu time    1.6387: real time    1.6542
    MIXING:  cpu time    0.0028: real time    0.0028
    --------------------------------------------
      LOOP:  cpu time   41.0094: real time   41.6601

 eigenvalue-minimisations  : 27288
 total energy-change (2. order) :-0.1562786E+00  (-0.1933765E-01)
 number of electron     184.0000004 magnetization      31.9834244
 augmentation part       69.4619540 magnetization      21.0215387

 Broyden mixing:
  rms(total) = 0.16765E+00    rms(broyden)= 0.16764E+00
  rms(prec ) = 0.18171E+00
  weight for this iteration     100.00

 eigenvalues of (default mixing * dielectric matrix)
  average eigenvalue GAMMA=   0.9365
  2.3287  1.4013  0.2366  0.7098  0.7098  0.5846  0.5846

 Free energy of the ion-electron system (eV)
  ---------------------------------------------------
  alpha Z        PSCENC =       578.62414157
  Ewald energy   TEWEN  =    -14430.75942168
  -Hartree energ DENC   =     -7584.36464189
  -exchange      EXHF   =         0.00000000
  -V(xc)+E(xc)   XCENC  =       807.03487949
  PAW double counting   =     23101.50426615   -23817.77745635
  entropy T*S    EENTRO =        -0.00000000
  eigenvalues    EBANDS =     -2637.31277856
  atomic energy  EATOM  =     23860.86992739
  Solvation  Ediel_sol  =         0.00000000
  ---------------------------------------------------
  free energy    TOTEN  =      -122.18108389 eV

  energy without entropy =     -122.18108389  energy(sigma->0) =     -122.18108389


--------------------------------------------------------------------------------------------------------




--------------------------------------- Iteration      1(  13)  ---------------------------------------


    POTLOK:  cpu time    0.0950: real time    0.0967
    SETDIJ:  cpu time    0.6207: real time    0.6212
     EDDAV:  cpu time   38.6603: real time   39.0544
       DOS:  cpu time    0.0045: real time    0.0046
    CHARGE:  cpu time    1.6362: real time    1.6576
    MIXING:  cpu time    0.0122: real time    0.0128
    --------------------------------------------
      LOOP:  cpu time   41.0289: real time   41.4473

 eigenvalue-minimisations  : 28248
 total energy-change (2. order) :-0.7189056E-01  (-0.8325768E-02)
 number of electron     184.0000004 magnetization      31.9567940
 augmentation part       69.4757479 magnetization      20.9989738

 Broyden mixing:
  rms(total) = 0.87849E-01    rms(broyden)= 0.87842E-01
  rms(prec ) = 0.96667E-01
  weight for this iteration     100.00

 eigenvalues of (default mixing * dielectric matrix)
  average eigenvalue GAMMA=   0.9881
  2.5560  1.6217  0.2366  0.7715  0.7715  0.5969  0.5969  0.7540

 Free energy of the ion-electron system (eV)
  ---------------------------------------------------
  alpha Z        PSCENC =       578.62414157
  Ewald energy   TEWEN  =    -14430.75942168
  -Hartree energ DENC   =     -7584.43082515
  -exchange      EXHF   =         0.00000000
  -V(xc)+E(xc)   XCENC  =       807.13236488
  PAW double counting   =     23141.72609044   -23856.76020349
  entropy T*S    EENTRO =        -0.00000000
  eigenvalues    EBANDS =     -2638.65504842
  atomic energy  EATOM  =     23860.86992739
  Solvation  Ediel_sol  =         0.00000000
  ---------------------------------------------------
  free energy    TOTEN  =      -122.25297446 eV

  energy without entropy =     -122.25297446  energy(sigma->0) =     -122.25297446


--------------------------------------------------------------------------------------------------------




--------------------------------------- Iteration      1(  14)  ---------------------------------------


    POTLOK:  cpu time    0.0949: real time    0.0967
    SETDIJ:  cpu time    0.6202: real time    0.6205
     EDDAV:  cpu time   39.3509: real time   39.7141
       DOS:  cpu time    0.0011: real time    0.0011
    CHARGE:  cpu time    1.6255: real time    1.6564
    MIXING:  cpu time    0.0122: real time    0.0134
    --------------------------------------------
      LOOP:  cpu time   41.7047: real time   42.1023

 eigenvalue-minimisations  : 28680
 total energy-change (2. order) :-0.1858578E-01  (-0.2842162E-02)
 number of electron     184.0000004 magnetization      31.9866305
 augmentation part       69.4732423 magnetization      21.0307999

 Broyden mixing:
  rms(total) = 0.53285E-01    rms(broyden)= 0.53279E-01
  rms(prec ) = 0.58901E-01
  weight for this iteration     100.00

 eigenvalues of (default mixing * dielectric matrix)
  average eigenvalue GAMMA=   1.0256
  2.6445  1.8743  1.0885  0.2366  0.7784  0.7784  0.6229  0.6229  0.5842

 Free energy of the ion-electron system (eV)
  ---------------------------------------------------
  alpha Z        PSCENC =       578.62414157
  Ewald energy   TEWEN  =    -14430.75942168
  -Hartree energ DENC   =     -7585.63109187
  -exchange      EXHF   =         0.00000000
  -V(xc)+E(xc)   XCENC  =       807.24705352
  PAW double counting   =     23169.68683602   -23884.16777001
  entropy T*S    EENTRO =        -0.00000000
  eigenvalues    EBANDS =     -2638.14123518
  atomic energy  EATOM  =     23860.86992739
  Solvation  Ediel_sol  =         0.00000000
  ---------------------------------------------------
  free energy    TOTEN  =      -122.27156023 eV

  energy without entropy =     -122.27156023  energy(sigma->0) =     -122.27156023


--------------------------------------------------------------------------------------------------------




--------------------------------------- Iteration      1(  15)  ---------------------------------------


    POTLOK:  cpu time    0.1092: real time    0.1151
    SETDIJ:  cpu time    0.6225: real time    0.6428
     EDDAV:  cpu time   41.0796: real time   41.6267
       DOS:  cpu time    0.0011: real time    0.0011
    CHARGE:  cpu time    1.6286: real time    1.6309
    MIXING:  cpu time    0.0036: real time    0.0036
    --------------------------------------------
      LOOP:  cpu time   43.4447: real time   44.0202

 eigenvalue-minimisations  : 30120
 total energy-change (2. order) :-0.5912622E-02  (-0.1395631E-02)
 number of electron     184.0000004 magnetization      32.0231914
 augmentation part       69.4693444 magnetization      21.0678791

 Broyden mixing:
  rms(total) = 0.37379E-01    rms(broyden)= 0.37374E-01
  rms(prec ) = 0.40954E-01
  weight for this iteration     100.00

 eigenvalues of (default mixing * dielectric matrix)
  average eigenvalue GAMMA=   1.1265
  2.5906  2.5906  1.5556  0.2366  0.9974  0.7518  0.7518  0.6054  0.6054  0.5802

 Free energy of the ion-electron system (eV)
  ---------------------------------------------------
  alpha Z        PSCENC =       578.62414157
  Ewald energy   TEWEN  =    -14430.75942168
  -Hartree energ DENC   =     -7586.50729851
  -exchange      EXHF   =         0.00000000
  -V(xc)+E(xc)   XCENC  =       807.29196167
  PAW double counting   =     23170.66369558   -23884.89271331
  entropy T*S    EENTRO =        -0.00000000
  eigenvalues    EBANDS =     -2637.56776557
  atomic energy  EATOM  =     23860.86992739
  Solvation  Ediel_sol  =         0.00000000
  ---------------------------------------------------
  free energy    TOTEN  =      -122.27747286 eV

  energy without entropy =     -122.27747286  energy(sigma->0) =     -122.27747286


--------------------------------------------------------------------------------------------------------




--------------------------------------- Iteration      1(  16)  ---------------------------------------


    POTLOK:  cpu time    0.0941: real time    0.0963
    SETDIJ:  cpu time    0.6210: real time    0.6211
     EDDAV:  cpu time   41.5152: real time   42.0220
       DOS:  cpu time    0.0011: real time    0.0011
    CHARGE:  cpu time    1.6434: real time    1.6447
    MIXING:  cpu time    0.0068: real time    0.0077
    --------------------------------------------
      LOOP:  cpu time   43.8816: real time   44.3929

 eigenvalue-minimisations  : 31152
 total energy-change (2. order) :-0.5446180E-02  (-0.1812181E-02)
 number of electron     184.0000004 magnetization      32.0103864
 augmentation part       69.4731048 magnetization      21.0545483

 Broyden mixing:
  rms(total) = 0.26762E-01    rms(broyden)= 0.26754E-01
  rms(prec ) = 0.28859E-01
  weight for this iteration     100.00

 eigenvalues of (default mixing * dielectric matrix)
  average eigenvalue GAMMA=   1.1925
  3.2023  2.7840  1.7649  0.2366  0.9098  0.8586  0.8586  0.6695  0.6695  0.5820
  0.5820

 Free energy of the ion-electron system (eV)
  ---------------------------------------------------
  alpha Z        PSCENC =       578.62414157
  Ewald energy   TEWEN  =    -14430.75942168
  -Hartree energ DENC   =     -7586.74013824
  -exchange      EXHF   =         0.00000000
  -V(xc)+E(xc)   XCENC  =       807.30470067
  PAW double counting   =     23163.22895184   -23877.12337980
  entropy T*S    EENTRO =        -0.00000000
  eigenvalues    EBANDS =     -2637.68770079
  atomic energy  EATOM  =     23860.86992739
  Solvation  Ediel_sol  =         0.00000000
  ---------------------------------------------------
  free energy    TOTEN  =      -122.28291904 eV

  energy without entropy =     -122.28291904  energy(sigma->0) =     -122.28291904


--------------------------------------------------------------------------------------------------------




--------------------------------------- Iteration      1(  17)  ---------------------------------------


    POTLOK:  cpu time    0.1124: real time    0.1179
    SETDIJ:  cpu time    0.5951: real time    0.6229
     EDDAV:  cpu time   42.6550: real time   43.2337
       DOS:  cpu time    0.0019: real time    0.0026
    CHARGE:  cpu time    1.6248: real time    1.6323
    MIXING:  cpu time    0.0047: real time    0.0047
    --------------------------------------------
      LOOP:  cpu time   44.9938: real time   45.6140

 eigenvalue-minimisations  : 30600
 total energy-change (2. order) :-0.3935980E-02  (-0.1503254E-02)
 number of electron     184.0000004 magnetization      32.0046806
 augmentation part       69.4723445 magnetization      21.0484835

 Broyden mixing:
  rms(total) = 0.21900E-01    rms(broyden)= 0.21891E-01
  rms(prec ) = 0.23547E-01
  weight for this iteration     100.00

 eigenvalues of (default mixing * dielectric matrix)
  average eigenvalue GAMMA=   1.2444
  3.8766  2.6256  2.0055  1.0914  1.0914  0.2366  0.7553  0.7553  0.6621  0.6621
  0.5851  0.5851

 Free energy of the ion-electron system (eV)
  ---------------------------------------------------
  alpha Z        PSCENC =       578.62414157
  Ewald energy   TEWEN  =    -14430.75942168
  -Hartree energ DENC   =     -7587.01330342
  -exchange      EXHF   =         0.00000000
  -V(xc)+E(xc)   XCENC  =       807.32879379
  PAW double counting   =     23169.16131337   -23882.95413035
  entropy T*S    EENTRO =        -0.00000000
  eigenvalues    EBANDS =     -2637.54417569
  atomic energy  EATOM  =     23860.86992739
  Solvation  Ediel_sol  =         0.00000000
  ---------------------------------------------------
  free energy    TOTEN  =      -122.28685502 eV

  energy without entropy =     -122.28685502  energy(sigma->0) =     -122.28685502


--------------------------------------------------------------------------------------------------------




--------------------------------------- Iteration      1(  18)  ---------------------------------------


    POTLOK:  cpu time    0.0946: real time    0.0970
    SETDIJ:  cpu time    0.6179: real time    0.6247
     EDDAV:  cpu time   40.5847: real time   41.1449
       DOS:  cpu time    0.0011: real time    0.0011
    CHARGE:  cpu time    1.6162: real time    1.6386
    MIXING:  cpu time    0.0039: real time    0.0039
    --------------------------------------------
      LOOP:  cpu time   42.9184: real time   43.5103

 eigenvalue-minimisations  : 29640
 total energy-change (2. order) :-0.2496132E-02  (-0.7159473E-03)
 number of electron     184.0000004 magnetization      32.0056440
 augmentation part       69.4716692 magnetization      21.0487494

 Broyden mixing:
  rms(total) = 0.19921E-01    rms(broyden)= 0.19915E-01
  rms(prec ) = 0.21379E-01
  weight for this iteration     100.00

 eigenvalues of (default mixing * dielectric matrix)
  average eigenvalue GAMMA=   1.3894
  5.2832  2.8562  2.0610  1.6317  1.1963  0.2366  0.7984  0.7984  0.6785  0.6785
  0.6000  0.6000  0.6439

 Free energy of the ion-electron system (eV)
  ---------------------------------------------------
  alpha Z        PSCENC =       578.62414157
  Ewald energy   TEWEN  =    -14430.75942168
  -Hartree energ DENC   =     -7587.06028462
  -exchange      EXHF   =         0.00000000
  -V(xc)+E(xc)   XCENC  =       807.32616665
  PAW double counting   =     23169.14442687   -23883.00970084
  entropy T*S    EENTRO =        -0.00000000
  eigenvalues    EBANDS =     -2637.42460648
  atomic energy  EATOM  =     23860.86992739
  Solvation  Ediel_sol  =         0.00000000
  ---------------------------------------------------
  free energy    TOTEN  =      -122.28935115 eV

  energy without entropy =     -122.28935115  energy(sigma->0) =     -122.28935115


--------------------------------------------------------------------------------------------------------




--------------------------------------- Iteration      1(  19)  ---------------------------------------


    POTLOK:  cpu time    0.0962: real time    0.0965
    SETDIJ:  cpu time    0.6213: real time    0.6213
     EDDAV:  cpu time   40.9967: real time   41.5311
       DOS:  cpu time    0.0028: real time    0.0028
    CHARGE:  cpu time    1.6371: real time    1.6463
    MIXING:  cpu time    0.0196: real time    0.0196
    --------------------------------------------
      LOOP:  cpu time   43.3737: real time   43.9177

 eigenvalue-minimisations  : 29496
 total energy-change (2. order) :-0.4413064E-02  (-0.3203607E-02)
 number of electron     184.0000004 magnetization      32.0038284
 augmentation part       69.4720328 magnetization      21.0463367

 Broyden mixing:
  rms(total) = 0.16405E-01    rms(broyden)= 0.16385E-01
  rms(prec ) = 0.17784E-01
  weight for this iteration     100.00

 eigenvalues of (default mixing * dielectric matrix)
  average eigenvalue GAMMA=   1.5515
  7.9886  2.8632  2.1546  1.9320  1.1271  0.2366  0.7927  0.7927  0.7412  0.6602
  0.6602  0.5920  0.5920  0.5871

 Free energy of the ion-electron system (eV)
  ---------------------------------------------------
  alpha Z        PSCENC =       578.62414157
  Ewald energy   TEWEN  =    -14430.75942168
  -Hartree energ DENC   =     -7587.11138848
  -exchange      EXHF   =         0.00000000
  -V(xc)+E(xc)   XCENC  =       807.32307882
  PAW double counting   =     23166.58634383   -23880.47102682
  entropy T*S    EENTRO =        -0.00000000
  eigenvalues    EBANDS =     -2637.35541885
  atomic energy  EATOM  =     23860.86992739
  Solvation  Ediel_sol  =         0.00000000
  ---------------------------------------------------
  free energy    TOTEN  =      -122.29376421 eV

  energy without entropy =     -122.29376421  energy(sigma->0) =     -122.29376421


--------------------------------------------------------------------------------------------------------




--------------------------------------- Iteration      1(  20)  ---------------------------------------


    POTLOK:  cpu time    0.0949: real time    0.1158
    SETDIJ:  cpu time    0.6232: real time    0.6234
     EDDAV:  cpu time   42.0610: real time   42.3336
       DOS:  cpu time    0.0024: real time    0.0025
    CHARGE:  cpu time    1.6366: real time    1.6724
    MIXING:  cpu time    0.0190: real time    0.0200
    --------------------------------------------
      LOOP:  cpu time   44.4371: real time   44.7677

 eigenvalue-minimisations  : 31704
 total energy-change (2. order) :-0.2797049E-02  (-0.2180975E-02)
 number of electron     184.0000004 magnetization      32.0035318
 augmentation part       69.4722523 magnetization      21.0455890

 Broyden mixing:
  rms(total) = 0.14100E-01    rms(broyden)= 0.14081E-01
  rms(prec ) = 0.15235E-01
  weight for this iteration     100.00

 eigenvalues of (default mixing * dielectric matrix)
  average eigenvalue GAMMA=   1.5736
  9.0327  2.8527  2.0601  1.9904  1.1536  0.2366  0.7316  0.7316  0.8298  0.7742
  0.7742  0.6300  0.6300  0.5885  0.5885

 Free energy of the ion-electron system (eV)
  ---------------------------------------------------
  alpha Z        PSCENC =       578.62414157
  Ewald energy   TEWEN  =    -14430.75942168
  -Hartree energ DENC   =     -7587.14293953
  -exchange      EXHF   =         0.00000000
  -V(xc)+E(xc)   XCENC  =       807.32582928
  PAW double counting   =     23167.12174848   -23880.98652113
  entropy T*S    EENTRO =        -0.00000000
  eigenvalues    EBANDS =     -2637.34932564
  atomic energy  EATOM  =     23860.86992739
  Solvation  Ediel_sol  =         0.00000000
  ---------------------------------------------------
  free energy    TOTEN  =      -122.29656126 eV

  energy without entropy =     -122.29656126  energy(sigma->0) =     -122.29656126


--------------------------------------------------------------------------------------------------------




--------------------------------------- Iteration      1(  21)  ---------------------------------------


    POTLOK:  cpu time    0.1049: real time    0.1119
    SETDIJ:  cpu time    0.6194: real time    0.6298
     EDDAV:  cpu time   37.7248: real time   37.9351
       DOS:  cpu time    0.0011: real time    0.0011
    CHARGE:  cpu time    1.6319: real time    1.6329
    MIXING:  cpu time    0.0048: real time    0.0048
    --------------------------------------------
      LOOP:  cpu time   40.0868: real time   40.3155

 eigenvalue-minimisations  : 28248
 total energy-change (2. order) :-0.1040160E-02  (-0.4038929E-03)
 number of electron     184.0000004 magnetization      32.0046822
 augmentation part       69.4725388 magnetization      21.0464971

 Broyden mixing:
  rms(total) = 0.12118E-01    rms(broyden)= 0.12113E-01
  rms(prec ) = 0.13083E-01
  weight for this iteration     100.00

 eigenvalues of (default mixing * dielectric matrix)
  average eigenvalue GAMMA=   1.7099
 10.8409  2.8227  2.1142  2.1142  1.6798  0.2366  0.9715  0.9715  0.8506  0.8506
  0.7205  0.7205  0.5988  0.5988  0.6589  0.6085

 Free energy of the ion-electron system (eV)
  ---------------------------------------------------
  alpha Z        PSCENC =       578.62414157
  Ewald energy   TEWEN  =    -14430.75942168
  -Hartree energ DENC   =     -7587.11485020
  -exchange      EXHF   =         0.00000000
  -V(xc)+E(xc)   XCENC  =       807.32502577
  PAW double counting   =     23167.60055585   -23881.46287187
  entropy T*S    EENTRO =        -0.00000000
  eigenvalues    EBANDS =     -2637.38010825
  atomic energy  EATOM  =     23860.86992739
  Solvation  Ediel_sol  =         0.00000000
  ---------------------------------------------------
  free energy    TOTEN  =      -122.29760142 eV

  energy without entropy =     -122.29760142  energy(sigma->0) =     -122.29760142


--------------------------------------------------------------------------------------------------------




--------------------------------------- Iteration      1(  22)  ---------------------------------------


    POTLOK:  cpu time    0.0956: real time    0.0959
    SETDIJ:  cpu time    0.6145: real time    0.6285
     EDDAV:  cpu time   40.5633: real time   41.2723
       DOS:  cpu time    0.0012: real time    0.0013
    CHARGE:  cpu time    1.6224: real time    1.6237
    MIXING:  cpu time    0.0045: real time    0.0045
    --------------------------------------------
      LOOP:  cpu time   42.9016: real time   43.6261

 eigenvalue-minimisations  : 29496
 total energy-change (2. order) :-0.1986154E-02  (-0.2220224E-02)
 number of electron     184.0000004 magnetization      32.0023767
 augmentation part       69.4736073 magnetization      21.0435821

 Broyden mixing:
  rms(total) = 0.10251E-01    rms(broyden)= 0.10230E-01
  rms(prec ) = 0.11139E-01
  weight for this iteration     100.00

 eigenvalues of (default mixing * dielectric matrix)
  average eigenvalue GAMMA=   1.9144
 14.4538  3.0031  2.4160  2.4160  1.9068  0.2366  0.9541  0.9541  0.8627  0.8627
  0.7189  0.7189  0.6835  0.5986  0.5986  0.5799  0.5799

 Free energy of the ion-electron system (eV)
  ---------------------------------------------------
  alpha Z        PSCENC =       578.62414157
  Ewald energy   TEWEN  =    -14430.75942168
  -Hartree energ DENC   =     -7587.12252211
  -exchange      EXHF   =         0.00000000
  -V(xc)+E(xc)   XCENC  =       807.32542958
  PAW double counting   =     23168.01747083   -23881.86254466
  entropy T*S    EENTRO =        -0.00000000
  eigenvalues    EBANDS =     -2637.39206850
  atomic energy  EATOM  =     23860.86992739
  Solvation  Ediel_sol  =         0.00000000
  ---------------------------------------------------
  free energy    TOTEN  =      -122.29958758 eV

  energy without entropy =     -122.29958758  energy(sigma->0) =     -122.29958758


--------------------------------------------------------------------------------------------------------




--------------------------------------- Iteration      1(  23)  ---------------------------------------


    POTLOK:  cpu time    0.0934: real time    0.0958
    SETDIJ:  cpu time    0.6212: real time    0.6216
     EDDAV:  cpu time   40.6414: real time   41.0439
       DOS:  cpu time    0.0064: real time    0.0082
    CHARGE:  cpu time    1.6237: real time    1.6521
    MIXING:  cpu time    0.0120: real time    0.0120
    --------------------------------------------
      LOOP:  cpu time   42.9980: real time   43.4335

 eigenvalue-minimisations  : 29880
 total energy-change (2. order) :-0.1492780E-02  (-0.4314563E-02)
 number of electron     184.0000004 magnetization      32.0010739
 augmentation part       69.4739053 magnetization      21.0415220

 Broyden mixing:
  rms(total) = 0.79428E-02    rms(broyden)= 0.78887E-02
  rms(prec ) = 0.88515E-02
  weight for this iteration     100.00

 eigenvalues of (default mixing * dielectric matrix)
  average eigenvalue GAMMA=   2.0200
 16.6080  3.8888  2.3238  2.3238  1.8861  0.2366  1.0018  1.0018  0.9026  0.6938
  0.6938  0.7837  0.7837  0.7072  0.7072  0.5987  0.5987  0.6197

 Free energy of the ion-electron system (eV)
  ---------------------------------------------------
  alpha Z        PSCENC =       578.62414157
  Ewald energy   TEWEN  =    -14430.75942168
  -Hartree energ DENC   =     -7587.14481540
  -exchange      EXHF   =         0.00000000
  -V(xc)+E(xc)   XCENC  =       807.32660084
  PAW double counting   =     23168.81412023   -23882.65066364
  entropy T*S    EENTRO =        -0.00000000
  eigenvalues    EBANDS =     -2637.38096967
  atomic energy  EATOM  =     23860.86992739
  Solvation  Ediel_sol  =         0.00000000
  ---------------------------------------------------
  free energy    TOTEN  =      -122.30108036 eV

  energy without entropy =     -122.30108036  energy(sigma->0) =     -122.30108036


--------------------------------------------------------------------------------------------------------




--------------------------------------- Iteration      1(  24)  ---------------------------------------


    POTLOK:  cpu time    0.1221: real time    0.1237
    SETDIJ:  cpu time    0.6316: real time    0.6469
     EDDAV:  cpu time   36.9020: real time   37.1602
       DOS:  cpu time    0.0011: real time    0.0011
    CHARGE:  cpu time    1.6422: real time    1.6437
    MIXING:  cpu time    0.0129: real time    0.0130
    --------------------------------------------
      LOOP:  cpu time   39.3119: real time   39.5887

 eigenvalue-minimisations  : 27528
 total energy-change (2. order) :-0.5105380E-03  (-0.5768573E-03)
 number of electron     184.0000004 magnetization      31.9998840
 augmentation part       69.4734470 magnetization      21.0401070

 Broyden mixing:
  rms(total) = 0.53292E-02    rms(broyden)= 0.53134E-02
  rms(prec ) = 0.60196E-02
  weight for this iteration     100.00

 eigenvalues of (default mixing * dielectric matrix)
  average eigenvalue GAMMA=   2.0368
 18.1290  3.9095  2.4173  2.0109  1.6065  1.3515  1.3515  0.2366  0.6998  0.6998
  0.8304  0.8304  0.7579  0.7208  0.7208  0.6371  0.6004  0.6004  0.5878

 Free energy of the ion-electron system (eV)
  ---------------------------------------------------
  alpha Z        PSCENC =       578.62414157
  Ewald energy   TEWEN  =    -14430.75942168
  -Hartree energ DENC   =     -7587.13403325
  -exchange      EXHF   =         0.00000000
  -V(xc)+E(xc)   XCENC  =       807.32423599
  PAW double counting   =     23169.12531311   -23882.99677903
  entropy T*S    EENTRO =        -0.00000000
  eigenvalues    EBANDS =     -2637.35497500
  atomic energy  EATOM  =     23860.86992739
  Solvation  Ediel_sol  =         0.00000000
  ---------------------------------------------------
  free energy    TOTEN  =      -122.30159089 eV

  energy without entropy =     -122.30159089  energy(sigma->0) =     -122.30159089


--------------------------------------------------------------------------------------------------------




--------------------------------------- Iteration      1(  25)  ---------------------------------------


    POTLOK:  cpu time    0.1100: real time    0.1109
    SETDIJ:  cpu time    0.6199: real time    0.6276
     EDDAV:  cpu time   36.8327: real time   37.4000
[...]

 eigenvalues of (default mixing * dielectric matrix)
  average eigenvalue GAMMA=   3.1010
 19.2313 18.8454 14.8298  4.8636  4.5515  2.8755  2.7410  2.4518  2.3082  1.8598
  1.4478  1.2422  1.2422  0.9707  0.9707  0.9139  0.7993  0.7993  0.7365  0.7365
  0.7001  0.6579  0.6579  0.6263  0.6205  0.6037  0.6146  0.6146  0.4158

 Free energy of the ion-electron system (eV)
  ---------------------------------------------------
  -Hartree energ DENC   =        -0.58773822
  -V(xc)+E(xc)   XCENC  =         0.03501775
  PAW double counting   =         2.56000094       -2.22140928
  entropy T*S    EENTRO =         0.00000000
  eigenvalues    EBANDS =        -5.04032277
  ---------------------------------------------------
  free energy    TOTEN  =        -5.25445158 eV

  energy without entropy =       -5.25445158


----------------------------------------- Iteration    3(  32)  ---------------------------------------


   POT+DIJ:  cpu time    1.4589: real time    1.4642
    HAMIL1:  cpu time    8.2935: real time    8.4338
    LRDIAG:  cpu time    1.4799: real time    1.5158
    LRDIIS:  cpu time   40.9064: real time   41.1704
    LRDIAG:  cpu time    1.2929: real time    1.2955
    MIXING:  cpu time    0.0098: real time    0.0098
    --------------------------------------------
      LOOP:  cpu time   56.7346: real time   57.1906

 Broyden mixing:
  rms(total) = 0.19593E-05    rms(broyden)= 0.19093E-05
  rms(prec ) = 0.20107E-05
  weight for this iteration     100.00

 eigenvalues of (default mixing * dielectric matrix)
  average eigenvalue GAMMA=   3.0718
 20.1610 19.0467 14.9841  4.8923  4.5483  2.9314  2.7437  2.4619  2.3150  1.8896
  1.4458  1.3004  1.2341  0.9927  0.9744  0.9744  0.8232  0.7674  0.7674  0.7394
  0.7394  0.6029  0.6029  0.7021  0.6575  0.6414  0.6279  0.6168  0.5622  0.4080

 Free energy of the ion-electron system (eV)
  ---------------------------------------------------
  -Hartree energ DENC   =        -0.58773982
  -V(xc)+E(xc)   XCENC  =         0.03501783
  PAW double counting   =         2.55999815       -2.22139757
  entropy T*S    EENTRO =         0.00000000
  eigenvalues    EBANDS =        -5.04046087
  ---------------------------------------------------
  free energy    TOTEN  =        -5.25458228 eV

  energy without entropy =       -5.25458228


----------------------------------------- Iteration    3(  33)  ---------------------------------------


   POT+DIJ:  cpu time    1.4638: real time    1.4703
    HAMIL1:  cpu time    8.3165: real time    8.3599
    LRDIAG:  cpu time    1.3635: real time    1.3919
    LRDIIS:  cpu time   40.0804: real time   40.4128
    LRDIAG:  cpu time    1.4379: real time    1.4811
    MIXING:  cpu time    0.0063: real time    0.0063
    --------------------------------------------
      LOOP:  cpu time   55.9550: real time   56.4492

 Broyden mixing:
  rms(total) = 0.15900E-05    rms(broyden)= 0.15717E-05
  rms(prec ) = 0.16398E-05
  weight for this iteration     100.00

 eigenvalues of (default mixing * dielectric matrix)
  average eigenvalue GAMMA=   3.0256
 20.6674 19.0766 14.9890  4.9097  4.5446  2.9540  2.7546  2.4470  2.3308  1.8921
  1.4775  1.4387  1.2923  1.1055  0.9820  0.9820  0.9133  0.7993  0.7993  0.7363
  0.7363  0.7156  0.6567  0.6567  0.6324  0.6172  0.6172  0.5735  0.5735  0.5223
  0.3996

 Free energy of the ion-electron system (eV)
  ---------------------------------------------------
  -Hartree energ DENC   =        -0.58774010
  -V(xc)+E(xc)   XCENC  =         0.03501784
  PAW double counting   =         2.55999878       -2.22139566
  entropy T*S    EENTRO =         0.00000000
  eigenvalues    EBANDS =        -5.04004589
  ---------------------------------------------------
  free energy    TOTEN  =        -5.25416502 eV

  energy without entropy =       -5.25416502


----------------------------------------- Iteration    3(  34)  ---------------------------------------


   POT+DIJ:  cpu time    1.4548: real time    1.4745
    HAMIL1:  cpu time    8.3256: real time    8.4030
    LRDIAG:  cpu time    1.4402: real time    1.4910
    LRDIIS:  cpu time   37.0864: real time   37.4510
    LRDIAG:  cpu time    1.2874: real time    1.2889
    MIXING:  cpu time    0.0067: real time    0.0067
    --------------------------------------------
      LOOP:  cpu time   52.8938: real time   53.4344

 Broyden mixing:
  rms(total) = 0.14847E-05    rms(broyden)= 0.14719E-05
  rms(prec ) = 0.15227E-05
  weight for this iteration     100.00

 eigenvalues of (default mixing * dielectric matrix)
  average eigenvalue GAMMA=   2.9674
 20.8420 19.1023 14.9971  4.9168  4.5454  2.9810  2.7361  2.4666  2.3399  1.9475
  1.6910  1.4451  1.3133  1.1410  0.9955  0.9602  0.9602  0.7895  0.7895  0.7675
  0.7407  0.7407  0.6803  0.6803  0.6314  0.6214  0.6115  0.6021  0.5511  0.5511
  0.4463  0.3721

 Free energy of the ion-electron system (eV)
  ---------------------------------------------------
  -Hartree energ DENC   =        -0.58773998
  -V(xc)+E(xc)   XCENC  =         0.03501784
  PAW double counting   =         2.55999969       -2.22139671
  entropy T*S    EENTRO =         0.00000000
  eigenvalues    EBANDS =        -5.04029230
  ---------------------------------------------------
  free energy    TOTEN  =        -5.25441145 eV

  energy without entropy =       -5.25441145


----------------------------------------- Iteration    3(  35)  ---------------------------------------


   POT+DIJ:  cpu time    1.4528: real time    1.4656
    HAMIL1:  cpu time    8.3716: real time    8.3857
    LRDIAG:  cpu time    1.3007: real time    1.3022
    LRDIIS:  cpu time   35.6746: real time   35.8132
    LRDIAG:  cpu time    1.3848: real time    1.4151
    MIXING:  cpu time    0.0072: real time    0.0072
    --------------------------------------------
      LOOP:  cpu time   51.4870: real time   51.6876

 Broyden mixing:
  rms(total) = 0.11754E-05    rms(broyden)= 0.11629E-05
  rms(prec ) = 0.12039E-05
  weight for this iteration     100.00

 eigenvalues of (default mixing * dielectric matrix)
  average eigenvalue GAMMA=   2.9148
 20.9488 19.1166 14.9985  4.9219  4.5467  2.9975  2.7583  2.4520  2.4520  2.0327
  1.8950  1.4391  1.3194  1.1509  1.0273  0.9559  0.9559  0.8268  0.8268  0.7458
  0.7458  0.7473  0.7473  0.6635  0.6386  0.6298  0.6159  0.6159  0.6135  0.5219
  0.5219  0.4244  0.3356

 Free energy of the ion-electron system (eV)
  ---------------------------------------------------
  -Hartree energ DENC   =        -0.58773984
  -V(xc)+E(xc)   XCENC  =         0.03501783
  PAW double counting   =         2.55999970       -2.22139728
  entropy T*S    EENTRO =         0.00000000
  eigenvalues    EBANDS =        -5.04022243
  ---------------------------------------------------
  free energy    TOTEN  =        -5.25434203 eV

  energy without entropy =       -5.25434203


----------------------------------------- Iteration    3(  36)  ---------------------------------------


   POT+DIJ:  cpu time    1.4416: real time    1.4575
    HAMIL1:  cpu time    8.3074: real time    8.4816
    LRDIAG:  cpu time    1.3469: real time    1.3650
    LRDIIS:  cpu time   34.7857: real time   35.0817
    LRDIAG:  cpu time    1.2969: real time    1.2984
    MIXING:  cpu time    0.0069: real time    0.0069
    --------------------------------------------
      LOOP:  cpu time   50.4971: real time   51.0059

 Broyden mixing:
  rms(total) = 0.11111E-05    rms(broyden)= 0.11003E-05
  rms(prec ) = 0.11347E-05
  weight for this iteration     100.00

 eigenvalues of (default mixing * dielectric matrix)
  average eigenvalue GAMMA=   2.8688
 21.0631 19.1252 14.9978  4.9277  4.5485  3.1323  2.7400  2.7400  2.4703  2.2101
  1.8645  1.4376  1.3517  1.1998  1.0754  0.9738  0.9738  0.8773  0.7828  0.7828
  0.7558  0.7367  0.7367  0.6993  0.6534  0.6329  0.6187  0.6187  0.5921  0.5921
  0.4664  0.4664  0.2829  0.4119

 Free energy of the ion-electron system (eV)
  ---------------------------------------------------
  -Hartree energ DENC   =        -0.58773980
  -V(xc)+E(xc)   XCENC  =         0.03501782
  PAW double counting   =         2.55999990       -2.22139774
  entropy T*S    EENTRO =         0.00000000
  eigenvalues    EBANDS =        -5.04022476
  ---------------------------------------------------
  free energy    TOTEN  =        -5.25434458 eV

  energy without entropy =       -5.25434458


----------------------------------------- Iteration    3(  37)  ---------------------------------------


   POT+DIJ:  cpu time    1.4481: real time    1.4522
    HAMIL1:  cpu time    8.2426: real time    8.3744
    LRDIAG:  cpu time    1.4503: real time    1.5008
    LRDIIS:  cpu time   34.3531: real time   34.4673
    LRDIAG:  cpu time    1.2992: real time    1.3003
    MIXING:  cpu time    0.0156: real time    0.0156
    --------------------------------------------
      LOOP:  cpu time   50.1170: real time   50.4231

 Broyden mixing:
  rms(total) = 0.10829E-05    rms(broyden)= 0.10719E-05
  rms(prec ) = 0.11065E-05
  weight for this iteration     100.00

 eigenvalues of (default mixing * dielectric matrix)
  average eigenvalue GAMMA=   2.8172
 21.1161 19.1272 14.9976  4.9287  4.5490  3.3081  2.8437  2.7073  2.4865  2.2173
  1.8700  1.4114  1.4114  1.2857  1.1359  0.9707  0.9707  0.9269  0.7939  0.7939
  0.7399  0.7399  0.7411  0.6828  0.6828  0.6162  0.6162  0.6300  0.6206  0.6181
  0.5510  0.2456  0.4297  0.4297  0.4048

 Free energy of the ion-electron system (eV)
  ---------------------------------------------------
  -Hartree energ DENC   =        -0.58773971
  -V(xc)+E(xc)   XCENC  =         0.03501782
  PAW double counting   =         2.55999990       -2.22139812
  entropy T*S    EENTRO =         0.00000000
  eigenvalues    EBANDS =        -5.04028771
  ---------------------------------------------------
  free energy    TOTEN  =        -5.25440782 eV

  energy without entropy =       -5.25440782


------------------------ aborting loop because EDIFF is reached ----------------------------------------


 change of polarisation eV/A/(eV/A) component  3 :     0.000    -0.000     9.340
 dielectric tensor                  component  3 :     0.000    -0.000     6.365


--------------------------------------------------------------------------------------------------------


    FORLOC:  cpu time    0.0204: real time    0.0204
    FORNL :  cpu time   10.5085: real time   10.5850
    STRESS:  cpu time   21.0358: real time   21.1734
    FORCOR:  cpu time    0.0899: real time    0.0900
    OFIELD:  cpu time    0.0005: real time    0.0005
    FORLOC:  cpu time    0.0194: real time    0.0194
    FORNL :  cpu time   10.4283: real time   10.5406
    STRESS:  cpu time   20.9301: real time   21.1532
    FORCOR:  cpu time    0.0898: real time    0.0900
    OFIELD:  cpu time    0.0005: real time    0.0005
    FORNLD:  cpu time   21.1663: real time   21.4796

 PIEZOELECTRIC TENSOR FIELD DIRECTION 3  (e Angst)
 -----------------------------------------------------------------------------
     0.00357 -2.15781 -0.00077           ( -0.00002  0.05567  0.00003)
    -2.15632  0.00167 -0.00252           (  0.05567 -0.00001  0.00016)
    -0.00079 -0.00245 -0.00511           (  0.00003  0.00016 -0.00002)

 PIEZOELECTRIC TENSOR FIELD DIRECTION 3  (C/m^2)
 -----------------------------------------------------------------------------
     0.00018 -0.10976 -0.00004
    -0.10968  0.00008 -0.00013
    -0.00004 -0.00012 -0.00026


      POSITION         DIRECTION 3           BORN EFFECTIVE CHARGE    (rigid.aug.   ionic)
 -----------------------------------------------------------------------------------------
      2.77841      5.21785      1.58925     0.00002 -0.00012  1.36237 ( -0.95273  3.00000)
      0.00058      2.43861      1.89560    -0.00001 -0.00012  1.40420 ( -0.95779  3.00000)
      2.78043      5.21797      8.30298    -0.00003  0.00013  1.40419 ( -0.95779  3.00000)
      0.00259      2.43849      8.60933     0.00001  0.00010  1.36237 ( -0.95273  3.00000)
     -1.37640      1.05960      8.18451     0.04140  0.04885 -2.54164 ( -0.63757  6.00000)
      1.38116      3.81753      8.18442    -0.04129 -0.04925 -2.54153 ( -0.63758  6.00000)
      1.39985      1.03817      2.01416    -0.04108  0.04940 -2.54148 ( -0.63758  6.00000)
      4.15741      3.83897      2.01406     0.04146 -0.04894 -2.54167 ( -0.63757  6.00000)
      1.40044      3.83812      3.78391    -0.00488 -0.00565 -2.34934 (  0.81952  6.00000)
      4.15774      1.03891      3.78384     0.00408  0.00519 -2.34935 (  0.81952  6.00000)
     -1.37674      3.81828      6.41474     0.00427 -0.00521 -2.34913 (  0.81952  6.00000)
      1.38057      1.05876      6.41466    -0.00472  0.00559 -2.34908 (  0.81952  6.00000)
      1.38227      3.82822      0.00001    -0.00038 -0.02802 -2.57658 (  0.81379  6.00000)
      1.39874      1.04885     10.19857    -0.00032  0.02790 -2.57660 (  0.81379  6.00000)
     -1.25763      1.18232      6.18371     0.02146  0.02375  2.36064 ( -8.50348 14.00000)
      1.26131      3.69462      6.18369    -0.02073 -0.02362  2.36062 ( -8.50348 14.00000)
      1.51970      0.91526      4.01489    -0.02081  0.02358  2.36054 ( -8.50348 14.00000)
      4.03864      3.96168      4.01487     0.02174 -0.02364  2.36050 ( -8.50348 14.00000)
      0.00035      5.21813      1.57032    -0.00005  0.00028  2.44902 ( -8.49880 14.00000)
      2.77849      2.43869      1.57537     0.00011  0.00026  2.42718 ( -8.49803 14.00000)
      0.00252      5.21805      8.62321     0.00000 -0.00042  2.42711 ( -8.49803 14.00000)
      2.78066      2.43877      8.62826     0.00002 -0.00027  2.44902 ( -8.49880 14.00000)
 -----------------------------------------------------------------------------------------
    total drift (improves with k-points):   0.00027 -0.00023  0.01136




--------------------------------------------------------------------------------------------------------




 MACROSCOPIC STATIC DIELECTRIC TENSOR (including local field effects in DFT)
 ------------------------------------------------------
           6.278728     0.000008     0.000188
           0.000005     6.274806    -0.000002
           0.000196    -0.000012     6.365443
 ------------------------------------------------------



--------------------------------------------------------------------------------------------------------




--------------------------------------------------------------------------------------------------------




 MACROSCOPIC STATIC DIELECTRIC TENSOR (including local field effects in DFT)
 ------------------------------------------------------
           6.278728     0.000008     0.000188
           0.000005     6.274806    -0.000002
           0.000196    -0.000012     6.365443
 ------------------------------------------------------


 PIEZOELECTRIC TENSOR  for field in x, y, z        (e  Angst)
          XX          YY          ZZ          XY          YZ          ZX
  --------------------------------------------------------------------------------
  x    -0.00311    -0.00274     0.00609    -0.00048    -1.38483     0.00028
  y    -0.00251    -0.00132     0.00537    -0.00044    -0.00002    -1.39714
  z     0.00357     0.00167    -0.00511    -2.15632    -0.00245    -0.00077

 PIEZOELECTRIC TENSOR  for field in x, y, z        (C/m^2)
          XX          YY          ZZ          XY          YZ          ZX
  --------------------------------------------------------------------------------
  x    -0.00016    -0.00014     0.00031    -0.00002    -0.07044     0.00001
  y    -0.00013    -0.00007     0.00027    -0.00002    -0.00000    -0.07107
  z     0.00018     0.00008    -0.00026    -0.10968    -0.00012    -0.00004
 
 BORN EFFECTIVE CHARGES (in e, cummulative output)
 -------------------------------------------------
 ion    1
    1     1.13185     0.16466     0.00007
    2     0.16600     1.13816    -0.00021
    3     0.00001    -0.00011     1.36185
 ion    2
    1     1.19953     0.17524     0.00005
    2     0.17408     1.19447    -0.00023
    3    -0.00002    -0.00011     1.40368
 ion    3
    1     1.19952    -0.17523     0.00006
    2    -0.17407     1.19447     0.00023
    3    -0.00004     0.00014     1.40368
 ion    4
    1     1.13184    -0.16464     0.00008
    2    -0.16599     1.13816     0.00021
    3     0.00000     0.00011     1.36186
 ion    5
    1    -2.61872     0.70189     0.00746
    2     0.70152    -2.61829     0.01285
    3     0.04139     0.04886    -2.54215
 ion    6
    1    -2.61887     0.70183    -0.00764
    2     0.70145    -2.61830    -0.01328
    3    -0.04130    -0.04924    -2.54204
 ion    7
    1    -2.61892    -0.70186    -0.00765
    2    -0.70145    -2.61829     0.01326
    3    -0.04109     0.04941    -2.54200
 ion    8
    1    -2.61879    -0.70188     0.00743
    2    -0.70154    -2.61831    -0.01289
    3     0.04144    -0.04893    -2.54218
 ion    9
    1    -2.40779     0.04260     0.01172
    2     0.04258    -2.40480     0.00787
    3    -0.00490    -0.00564    -2.34986
 ion   10
    1    -2.40776     0.04257    -0.01237
    2     0.04262    -2.40493    -0.00821
    3     0.00407     0.00520    -2.34987
 ion   11
    1    -2.40786    -0.04249    -0.01230
    2    -0.04263    -2.40492     0.00821
    3     0.00425    -0.00520    -2.34965
 ion   12
    1    -2.40787    -0.04259     0.01174
    2    -0.04257    -2.40482    -0.00786
    3    -0.00473     0.00560    -2.34959
 ion   13
    1    -1.73213     0.00004    -0.00024
    2     0.00000    -1.73461    -0.01382
    3    -0.00039    -0.02801    -2.57710
 ion   14
    1    -1.73214     0.00004    -0.00023
    2    -0.00001    -1.73460     0.01384
    3    -0.00033     0.02791    -2.57712
 ion   15
    1     2.37734     0.01196     0.07269
    2     0.01213     2.37291     0.07096
    3     0.02145     0.02376     2.36012
 ion   16
    1     2.37719     0.01199    -0.07190
    2     0.01227     2.37291    -0.07067
    3    -0.02074    -0.02361     2.36010
 ion   17
    1     2.37701    -0.01195    -0.07191
    2    -0.01226     2.37298     0.07066
    3    -0.02082     0.02359     2.36002
 ion   18
    1     2.37737    -0.01214     0.07269
    2    -0.01217     2.37288    -0.07097
    3     0.02173    -0.02363     2.35999
 ion   19
    1     2.40354     0.22737     0.00002
    2     0.23917     2.30812     0.00020
    3    -0.00006     0.00029     2.44851
 ion   20
    1     2.29609     0.24488     0.00013
    2     0.23342     2.39431     0.00013
    3     0.00009     0.00027     2.42666
 ion   21
    1     2.29607    -0.24491     0.00011
    2    -0.23341     2.39433    -0.00013
    3    -0.00001    -0.00041     2.42659
 ion   22
    1     2.40353    -0.22739     0.00001
    2    -0.23913     2.30817    -0.00016
    3     0.00001    -0.00026     2.44850


--------------------------------------------------------------------------------------------------------


     LOOP+:  cpu time14255.7759: real time14468.4900
    4ORBIT:  cpu time    0.0000: real time    0.0000

 total amount of memory used by VASP MPI-rank0   418533. kBytes
=======================================================================

   base      :      30000. kBytes
   nonl-proj :     264744. kBytes
   fftplans  :      10969. kBytes
   grid      :      23359. kBytes
   one-center:        684. kBytes
   wavefun   :      88777. kBytes
 
  
  
 General timing and accounting informations for this job:
 ========================================================
  
                  Total CPU time used (sec):    14272.178
                            User time (sec):    14214.281
                          System time (sec):       57.897
                         Elapsed time (sec):    14486.682
  
                   Maximum memory used (kb):     1123784.
                   Average memory used (kb):           0.
  
                          Minor page faults:      1929734
                          Major page faults:           24
                 Voluntary context switches:       176379
