   20   20    1    2
  0.1495838E+02  0.6424095E-09  0.6053486E-09  0.9785777E-09  0.5000000E-15
   1.0000000000000000E-004
  CAR 
 unknown system                          
    128     24    100

  0.1262379E-14  0.1262379E-14  0.1262379E-14  0.1666667E-01
    1      -57.270974    -51.022154   1.000000   1.000000
    2      -57.260202    -51.018862   1.000000   1.000000
    3      -57.075548    -50.983240   1.000000   1.000000
    4      -57.073834    -50.982042   1.000000   1.000000
    5      -56.886408    -50.835796   1.000000   1.000000
    6      -56.886060    -50.833512   1.000000   1.000000
    7      -55.905673    -50.688454   1.000000   1.000000
    8      -55.904537    -50.685957   1.000000   1.000000
    9      -55.654689    -50.659884   1.000000   1.000000
   10      -55.650896    -50.639119   1.000000   1.000000
   11      -55.448123    -50.633971   1.000000   1.000000
   12      -55.447422    -50.630725   1.000000   1.000000
   13      -45.462558    -45.452662   1.000000   1.000000
   14      -45.455881    -45.446154   1.000000   1.000000
   15      -45.389232    -45.383787   1.000000   1.000000
   16      -45.387563    -45.382142   1.000000   1.000000
   17      -44.656544    -44.649689   1.000000   1.000000
   18      -44.656210    -44.649326   1.000000   1.000000
   19      -44.650691    -44.643800   1.000000   1.000000
   20      -44.650209    -44.643308   1.000000   1.000000
   21      -16.887767    -16.542282   1.000000   1.000000
   22      -16.665820    -16.327053   1.000000   1.000000
   23      -10.848434    -10.635304   1.000000   1.000000
   24      -10.182216     -9.953294   1.000000   1.000000
   25      -10.020858     -9.822677   1.000000   1.000000
   26       -9.941749     -9.743662   1.000000   1.000000
   27       -9.890594     -9.666749   1.000000   1.000000
   28       -9.651058     -9.438498   1.000000   1.000000
   29       -3.709055     -2.350410   1.000000   1.000000
   30       -3.312502     -1.871915   1.000000   1.000000
   31       -2.841379     -1.437757   1.000000   1.000000
   32       -2.698313     -1.402684   1.000000   1.000000
   33       -2.620632     -1.274715   1.000000   1.000000
   34       -2.520593     -1.107943   1.000000   1.000000
   35       -2.433158     -0.924084   1.000000   1.000000
   36       -2.309618     -0.895448   1.000000   1.000000
   37       -2.237515     -0.894771   1.000000   1.000000
   38       -2.076893     -0.848837   1.000000   1.000000
   39       -2.035493     -0.526817   1.000000   1.000000
   40       -1.944554     -0.312360   1.000000   1.000000
   41       -1.895657     -0.133956   1.000000   1.000000
   42       -1.887273      0.105547   1.000000   1.000000
   43       -1.843358      0.372254   1.000000   1.000000
   44       -1.693130      0.745899   1.000000   1.000000
   45       -1.628034      0.782152   1.000000   1.000000
   46       -1.380159      0.852345   1.000000   1.000000
   47       -1.334209      1.028844   1.000000   1.000000
   48       -1.246036      1.183666   1.000000   1.000000
   49       -1.115524      1.245714   1.000000   1.000000
   50       -1.035159      1.331993   1.000000   1.000000
   51       -0.940522      1.427883   1.000000   1.000000
   52       -0.807906      1.443496   1.000000   1.000000
   53       -0.726635      2.390511   1.000000   1.000000
   54       -0.324127      2.430857   1.000000   1.000000
   55       -0.297472      2.662026   1.000000   1.000000
   56       -0.049804      2.887072   1.000000   1.000000
   57       -0.022518      5.423162   1.000000   0.000000
   58        0.430528      5.781419   1.000000   0.000000
   59        0.609125      6.003983   1.000000   0.000000
   60        0.817370      6.074770   1.000000   0.000000
   61        0.865877      6.300933   1.000000   0.000000
   62        0.935605      6.332399   1.000000   0.000000
   63        1.095693      6.716371   1.000000   0.000000
   64        1.184793      6.830778   1.000000   0.000000
   65        1.557398      6.993859   1.000000   0.000000
   66        1.567334      7.044892   1.000000   0.000000
   67        1.690824      7.317227   1.000000   0.000000
   68        2.135480      7.322031   1.000000   0.000000
   69        2.388431      7.333178   1.000000   0.000000
   70        2.651442      7.801481   1.000000   0.000000
   71        2.667276      7.906761   1.000000   0.000000
   72        2.720298      8.171132   1.000000   0.000000
   73        6.624485      8.174256   0.000000   0.000000
   74        7.245986      8.209292   0.000000   0.000000
   75        8.173429      9.026879   0.000000   0.000000
   76        8.207568      9.352573   0.000000   0.000000
   77        9.060463      9.739010   0.000000   0.000000
   78        9.122940     10.007270   0.000000   0.000000
   79        9.626968     10.247588   0.000000   0.000000
   80        9.875121     10.354243   0.000000   0.000000
   81        9.900648     10.509958   0.000000   0.000000
   82       10.293812     10.769305   0.000000   0.000000
   83       10.323170     10.873280   0.000000   0.000000
   84       10.614598     11.056648   0.000000   0.000000
   85       10.631529     11.480932   0.000000   0.000000
   86       11.268376     11.537676   0.000000   0.000000
   87       11.434937     12.155304   0.000000   0.000000
   88       11.513504     12.168029   0.000000   0.000000
   89       11.739895     12.272165   0.000000   0.000000
   90       11.787446     12.305654   0.000000   0.000000
   91       12.309830     12.744913   0.000000   0.000000
   92       12.425309     12.962561   0.000000   0.000000
   93       12.632549     12.976452   0.000000   0.000000
   94       12.696269     13.091132   0.000000   0.000000
   95       12.727215     13.206165   0.000000   0.000000
   96       13.014798     13.499213   0.000000   0.000000
   97       13.117780     13.649456   0.000000   0.000000
   98       13.465951     13.879345   0.000000   0.000000
   99       13.803582     14.097292   0.000000   0.000000
  100       13.949770     14.529000   0.000000   0.000000

  0.2500000E+00  0.1262379E-14  0.1262379E-14  0.3333333E-01
    1      -57.270967    -51.022147   1.000000   1.000000
    2      -57.260197    -51.018882   1.000000   1.000000
    3      -57.075550    -50.983247   1.000000   1.000000
    4      -57.073828    -50.982052   1.000000   1.000000
    5      -56.886407    -50.835795   1.000000   1.000000
    6      -56.886063    -50.833516   1.000000   1.000000
    7      -55.905673    -50.688456   1.000000   1.000000
    8      -55.904537    -50.685963   1.000000   1.000000
    9      -55.654685    -50.659896   1.000000   1.000000
   10      -55.650899    -50.639105   1.000000   1.000000
   11      -55.448129    -50.633985   1.000000   1.000000
   12      -55.447424    -50.630719   1.000000   1.000000
   13      -45.462560    -45.452667   1.000000   1.000000
   14      -45.455885    -45.446155   1.000000   1.000000
   15      -45.389235    -45.383775   1.000000   1.000000
   16      -45.387562    -45.382152   1.000000   1.000000
   17      -44.656532    -44.649671   1.000000   1.000000
   18      -44.656222    -44.649347   1.000000   1.000000
   19      -44.650690    -44.643799   1.000000   1.000000
   20      -44.650229    -44.643329   1.000000   1.000000
   21      -16.887519    -16.541980   1.000000   1.000000
   22      -16.665478    -16.326719   1.000000   1.000000
   23      -10.768544    -10.555127   1.000000   1.000000
   24      -10.290905    -10.075087   1.000000   1.000000
   25      -10.013461     -9.803380   1.000000   1.000000
   26       -9.931058     -9.729345   1.000000   1.000000
   27       -9.890408     -9.668255   1.000000   1.000000
   28       -9.662236     -9.453693   1.000000   1.000000
   29       -3.718556     -2.345022   1.000000   1.000000
   30       -3.297848     -1.728104   1.000000   1.000000
   31       -2.846542     -1.548867   1.000000   1.000000
   32       -2.816026     -1.403086   1.000000   1.000000
   33       -2.582828     -1.358477   1.000000   1.000000
   34       -2.532531     -1.179209   1.000000   1.000000
   35       -2.429961     -0.982507   1.000000   1.000000
   36       -2.322443     -0.885368   1.000000   1.000000
   37       -2.148581     -0.860517   1.000000   1.000000
   38       -2.076305     -0.578929   1.000000   1.000000
   39       -2.047457     -0.431399   1.000000   1.000000
   40       -1.958735     -0.193866   1.000000   1.000000
   41       -1.893439     -0.088170   1.000000   1.000000
   42       -1.875081      0.000008   1.000000   1.000000
   43       -1.837000      0.316582   1.000000   1.000000
   44       -1.673053      0.535451   1.000000   1.000000
   45       -1.622534      0.779411   1.000000   1.000000
   46       -1.566011      0.793514   1.000000   1.000000
   47       -1.386592      0.948183   1.000000   1.000000
   48       -1.320233      1.084943   1.000000   1.000000
   49       -1.046182      1.278094   1.000000   1.000000
   50       -1.022819      1.336730   1.000000   1.000000
   51       -0.887419      1.389389   1.000000   1.000000
   52       -0.758734      1.675902   1.000000   1.000000
   53       -0.661021      2.371033   1.000000   1.000000
   54       -0.353227      2.477762   1.000000   1.000000
   55       -0.121861      2.665144   1.000000   1.000000
   56       -0.081807      2.852835   1.000000   1.000000
   57        0.172531      5.559113   1.000000   0.000000
   58        0.545272      5.884670   1.000000   0.000000
   59        0.546826      5.937771   1.000000   0.000000
   60        0.743645      6.179790   1.000000   0.000000
   61        0.789506      6.266967   1.000000   0.000000
   62        0.990092      6.369751   1.000000   0.000000
   63        1.097106      6.738442   1.000000   0.000000
   64        1.463278      6.781609   1.000000   0.000000
   65        1.498502      6.946405   1.000000   0.000000
   66        1.700599      7.207309   1.000000   0.000000
   67        1.892403      7.268428   1.000000   0.000000
   68        1.931225      7.359862   1.000000   0.000000
   69        2.262273      7.523069   1.000000   0.000000
   70        2.302083      7.842577   1.000000   0.000000
   71        2.593409      7.849056   1.000000   0.000000
   72        2.669103      8.020080   1.000000   0.000000
   73        7.179764      8.149025   0.000000   0.000000
   74        7.449786      8.620464   0.000000   0.000000
   75        8.106351      8.863622   0.000000   0.000000
   76        8.411456      9.489631   0.000000   0.000000
   77        8.856565      9.694964   0.000000   0.000000
   78        9.136362      9.855528   0.000000   0.000000
   79        9.232749      9.886250   0.000000   0.000000
   80        9.670849     10.313436   0.000000   0.000000
   81        9.777532     10.357024   0.000000   0.000000
   82       10.068377     10.584574   0.000000   0.000000
   83       10.120972     10.605232   0.000000   0.000000
   84       10.703243     11.230047   0.000000   0.000000
   85       10.797928     11.526016   0.000000   0.000000
   86       11.049715     11.630823   0.000000   0.000000
   87       11.340457     11.699200   0.000000   0.000000
   88       11.427812     11.885721   0.000000   0.000000
   89       11.541008     11.956571   0.000000   0.000000
   90       11.604318     12.113390   0.000000   0.000000
   91       12.256603     12.637613   0.000000   0.000000
   92       12.270682     12.692914   0.000000   0.000000
   93       12.287648     12.929635   0.000000   0.000000
   94       12.639140     13.229531   0.000000   0.000000
   95       12.707978     13.240341   0.000000   0.000000
   96       12.972881     13.368044   0.000000   0.000000
   97       13.135893     13.712228   0.000000   0.000000
   98       13.252927     13.903726   0.000000   0.000000
   99       13.648851     14.073239   0.000000   0.000000
  100       13.659122     14.362295   0.000000   0.000000

  0.5000000E+00  0.1262379E-14  0.1262379E-14  0.1666667E-01
    1      -57.270965    -51.022140   1.000000   1.000000
    2      -57.260191    -51.018898   1.000000   1.000000
    3      -57.075554    -50.983256   1.000000   1.000000
    4      -57.073823    -50.982061   1.000000   1.000000
    5      -56.886410    -50.835791   1.000000   1.000000
    6      -56.886068    -50.833515   1.000000   1.000000
    7      -55.905675    -50.688459   1.000000   1.000000
    8      -55.904542    -50.685970   1.000000   1.000000
    9      -55.654680    -50.659910   1.000000   1.000000
   10      -55.650897    -50.639087   1.000000   1.000000
   11      -55.448133    -50.633997   1.000000   1.000000
   12      -55.447423    -50.630715   1.000000   1.000000
   13      -45.462564    -45.452673   1.000000   1.000000
   14      -45.455872    -45.446138   1.000000   1.000000
   15      -45.389231    -45.383756   1.000000   1.000000
   16      -45.387554    -45.382155   1.000000   1.000000
   17      -44.656511    -44.649644   1.000000   1.000000
   18      -44.656237    -44.649370   1.000000   1.000000
   19      -44.650679    -44.643788   1.000000   1.000000
   20      -44.650230    -44.643330   1.000000   1.000000
   21      -16.887263    -16.541669   1.000000   1.000000
   22      -16.665129    -16.326378   1.000000   1.000000
   23      -10.602683    -10.379800   1.000000   1.000000
   24      -10.491377    -10.291284   1.000000   1.000000
   25       -9.945264     -9.731159   1.000000   1.000000
   26       -9.944939     -9.723146   1.000000   1.000000
   27       -9.919366     -9.713222   1.000000   1.000000
   28       -9.674391     -9.470676   1.000000   1.000000
   29       -3.727118     -2.349123   1.000000   1.000000
   30       -3.286516     -1.772944   1.000000   1.000000
   31       -2.881707     -1.554090   1.000000   1.000000
   32       -2.851902     -1.485824   1.000000   1.000000
   33       -2.544840     -1.135223   1.000000   1.000000
   34       -2.517734     -1.124395   1.000000   1.000000
   35       -2.453128     -1.030521   1.000000   1.000000
   36       -2.335059     -0.904898   1.000000   1.000000
   37       -2.230088     -0.645842   1.000000   1.000000
   38       -2.055857     -0.636643   1.000000   1.000000
   39       -2.046476     -0.263259   1.000000   1.000000
   40       -1.974136     -0.158336   1.000000   1.000000
   41       -1.953301     -0.093178   1.000000   1.000000
   42       -1.888775      0.030045   1.000000   1.000000
   43       -1.851782      0.230953   1.000000   1.000000
   44       -1.617687      0.305496   1.000000   1.000000
   45       -1.613340      0.332480   1.000000   1.000000
   46       -1.610543      0.783239   1.000000   1.000000
   47       -1.446675      1.026128   1.000000   1.000000
   48       -1.082991      1.178577   1.000000   1.000000
   49       -1.006025      1.180474   1.000000   1.000000
   50       -0.995586      1.336496   1.000000   1.000000
   51       -0.856760      1.443597   1.000000   1.000000
   52       -0.841441      1.918045   1.000000   1.000000
   53       -0.586846      2.357081   1.000000   1.000000
   54       -0.405797      2.517863   1.000000   1.000000
   55       -0.096251      2.675258   1.000000   1.000000
   56        0.049816      2.816382   1.000000   1.000000
   57        0.322406      5.799067   1.000000   0.000000
   58        0.483770      5.835877   1.000000   0.000000
   59        0.631787      5.862534   1.000000   0.000000
   60        0.699080      6.231186   1.000000   0.000000
   61        0.714562      6.370877   1.000000   0.000000
   62        1.106458      6.394757   1.000000   0.000000
   63        1.229829      6.728717   1.000000   0.000000
   64        1.293153      6.815418   1.000000   0.000000
   65        1.416357      6.937884   1.000000   0.000000
   66        1.528943      7.167759   1.000000   0.000000
   67        2.051764      7.243604   1.000000   0.000000
   68        2.100614      7.328520   1.000000   0.000000
   69        2.252667      7.668810   1.000000   0.000000
   70        2.331266      7.790867   1.000000   0.000000
   71        2.368600      7.793835   1.000000   0.000000
   72        2.574721      8.080244   1.000000   0.000000
   73        7.437455      8.393009   0.000000   0.000000
   74        7.474578      8.577725   0.000000   0.000000
   75        8.079226      8.916514   0.000000   0.000000
   76        8.563320      9.212590   0.000000   0.000000
   77        8.882657      9.676507   0.000000   0.000000
   78        8.954106      9.720571   0.000000   0.000000
   79        9.383324     10.167832   0.000000   0.000000
   80        9.740058     10.202214   0.000000   0.000000
   81        9.820556     10.407857   0.000000   0.000000
   82       10.015424     10.471115   0.000000   0.000000
   83       10.145566     10.642180   0.000000   0.000000
   84       10.391781     11.047844   0.000000   0.000000
   85       10.537156     11.186977   0.000000   0.000000
   86       10.853591     11.310179   0.000000   0.000000
   87       11.126826     11.425921   0.000000   0.000000
   88       11.136509     11.562537   0.000000   0.000000
   89       11.183946     11.899730   0.000000   0.000000
   90       11.855419     12.229050   0.000000   0.000000
   91       11.965423     12.474854   0.000000   0.000000
   92       11.999829     12.731363   0.000000   0.000000
   93       12.288578     12.752434   0.000000   0.000000
   94       12.401844     13.006617   0.000000   0.000000
   95       12.842375     13.282279   0.000000   0.000000
   96       12.971562     13.520381   0.000000   0.000000
   97       13.042404     13.609843   0.000000   0.000000
   98       13.311222     13.981675   0.000000   0.000000
   99       13.333822     14.085223   0.000000   0.000000
  100       13.593179     14.211630   0.000000   0.000000

  0.1262379E-14  0.2000000E+00  0.1218878E-14  0.3333333E-01
    1      -57.269944    -51.021831   1.000000   1.000000
    2      -57.261232    -51.019170   1.000000   1.000000
    3      -57.075389    -50.983129   1.000000   1.000000
    4      -57.074005    -50.982168   1.000000   1.000000
    5      -56.886375    -50.835575   1.000000   1.000000
    6      -56.886104    -50.833730   1.000000   1.000000
    7      -55.905568    -50.688225   1.000000   1.000000
    8      -55.904652    -50.686205   1.000000   1.000000
    9      -55.654331    -50.657896   1.000000   1.000000
   10      -55.651266    -50.641079   1.000000   1.000000
   11      -55.448065    -50.633670   1.000000   1.000000
   12      -55.447501    -50.631066   1.000000   1.000000
   13      -45.461920    -45.452040   1.000000   1.000000
   14      -45.456508    -45.446765   1.000000   1.000000
   15      -45.389063    -45.383620   1.000000   1.000000
   16      -45.387717    -45.382294   1.000000   1.000000
   17      -44.656525    -44.649665   1.000000   1.000000
   18      -44.656246    -44.649364   1.000000   1.000000
   19      -44.650633    -44.643744   1.000000   1.000000
   20      -44.650258    -44.643360   1.000000   1.000000
   21      -16.866518    -16.521593   1.000000   1.000000
   22      -16.686992    -16.347501   1.000000   1.000000
   23      -10.762337    -10.548525   1.000000   1.000000
   24      -10.204721     -9.974119   1.000000   1.000000
   25      -10.052602     -9.850229   1.000000   1.000000
   26      -10.028559     -9.832933   1.000000   1.000000
   27       -9.796860     -9.579652   1.000000   1.000000
   28       -9.714898     -9.505289   1.000000   1.000000
   29       -3.615215     -2.223495   1.000000   1.000000
   30       -3.292913     -1.936403   1.000000   1.000000
   31       -2.823547     -1.474489   1.000000   1.000000
   32       -2.686100     -1.464452   1.000000   1.000000
   33       -2.624233     -1.226708   1.000000   1.000000
   34       -2.566066     -1.195054   1.000000   1.000000
   35       -2.421005     -1.064693   1.000000   1.000000
   36       -2.412200     -0.918687   1.000000   1.000000
   37       -2.331409     -0.786469   1.000000   1.000000
   38       -2.166928     -0.665889   1.000000   1.000000
   39       -2.068670     -0.524535   1.000000   1.000000
   40       -2.056121     -0.138426   1.000000   1.000000
   41       -2.044625     -0.097284   1.000000   1.000000
   42       -2.037639      0.115730   1.000000   1.000000
   43       -1.903603      0.303334   1.000000   1.000000
   44       -1.804430      0.677877   1.000000   1.000000
   45       -1.563978      0.805562   1.000000   1.000000
   46       -1.428542      0.917039   1.000000   1.000000
   47       -1.418293      0.924234   1.000000   1.000000
   48       -1.105030      1.011370   1.000000   1.000000
   49       -0.958853      1.128455   1.000000   1.000000
   50       -0.917694      1.277052   1.000000   1.000000
   51       -0.760229      1.326542   1.000000   1.000000
   52       -0.616166      1.626405   1.000000   1.000000
   53       -0.532320      2.459358   1.000000   1.000000
   54       -0.292673      2.487984   1.000000   1.000000
   55       -0.269740      2.676149   1.000000   1.000000
   56        0.167634      2.844863   1.000000   1.000000
   57        0.248193      5.611366   1.000000   0.000000
   58        0.369759      5.851777   1.000000   0.000000
   59        0.568991      6.044482   1.000000   0.000000
   60        0.659742      6.227845   1.000000   0.000000
   61        0.856870      6.389047   1.000000   0.000000
   62        0.946732      6.398640   1.000000   0.000000
   63        1.148659      6.721565   1.000000   0.000000
   64        1.204284      6.920608   1.000000   0.000000
   65        1.571025      6.937643   1.000000   0.000000
   66        1.722193      6.951867   1.000000   0.000000
   67        1.733608      7.227147   1.000000   0.000000
   68        2.118836      7.228875   1.000000   0.000000
   69        2.146512      7.641979   1.000000   0.000000
   70        2.306011      7.661922   1.000000   0.000000
   71        2.584665      7.879494   1.000000   0.000000
   72        2.613206      7.961005   1.000000   0.000000
   73        7.236998      8.241703   0.000000   0.000000
   74        7.684820      8.655082   0.000000   0.000000
   75        8.196734      9.204937   0.000000   0.000000
   76        8.451655      9.421000   0.000000   0.000000
   77        8.939568      9.651321   0.000000   0.000000
   78        9.106103      9.708458   0.000000   0.000000
   79        9.391844     10.127069   0.000000   0.000000
   80        9.458872     10.186206   0.000000   0.000000
   81        9.932187     10.536012   0.000000   0.000000
   82       10.296816     10.835684   0.000000   0.000000
   83       10.301311     10.917763   0.000000   0.000000
   84       10.533111     11.140282   0.000000   0.000000
   85       10.771909     11.305990   0.000000   0.000000
   86       11.030946     11.596586   0.000000   0.000000
   87       11.081419     11.656554   0.000000   0.000000
   88       11.436712     11.981972   0.000000   0.000000
   89       11.456850     12.031016   0.000000   0.000000
   90       11.649727     12.241284   0.000000   0.000000
   91       11.901633     12.382014   0.000000   0.000000
   92       12.231347     12.736269   0.000000   0.000000
   93       12.273421     12.737794   0.000000   0.000000
   94       12.477464     13.085092   0.000000   0.000000
   95       12.702527     13.177704   0.000000   0.000000
   96       13.026543     13.485890   0.000000   0.000000
   97       13.099468     13.557798   0.000000   0.000000
   98       13.402121     13.847711   0.000000   0.000000
   99       13.753922     14.216862   0.000000   0.000000
  100       13.794214     14.355569   0.000000   0.000000

  0.2500000E+00  0.2000000E+00  0.1218878E-14  0.6666667E-01
    1      -57.269944    -51.021829   1.000000   1.000000
    2      -57.261233    -51.019185   1.000000   1.000000
    3      -57.075395    -50.983133   1.000000   1.000000
    4      -57.074001    -50.982171   1.000000   1.000000
    5      -56.886373    -50.835574   1.000000   1.000000
    6      -56.886101    -50.833729   1.000000   1.000000
    7      -55.905566    -50.688223   1.000000   1.000000
    8      -55.904650    -50.686207   1.000000   1.000000
    9      -55.654328    -50.657909   1.000000   1.000000
   10      -55.651267    -50.641071   1.000000   1.000000
   11      -55.448071    -50.633682   1.000000   1.000000
   12      -55.447500    -50.631060   1.000000   1.000000
   13      -45.461915    -45.452037   1.000000   1.000000
   14      -45.456514    -45.446768   1.000000   1.000000
   15      -45.389061    -45.383606   1.000000   1.000000
   16      -45.387718    -45.382303   1.000000   1.000000
   17      -44.656510    -44.649646   1.000000   1.000000
   18      -44.656261    -44.649385   1.000000   1.000000
   19      -44.650624    -44.643736   1.000000   1.000000
   20      -44.650269    -44.643372   1.000000   1.000000
   21      -16.866258    -16.521281   1.000000   1.000000
   22      -16.686659    -16.347167   1.000000   1.000000
   23      -10.686554    -10.472126   1.000000   1.000000
   24      -10.260662    -10.039519   1.000000   1.000000
   25      -10.075484     -9.871026   1.000000   1.000000
   26      -10.012880     -9.810588   1.000000   1.000000
   27       -9.832280     -9.616934   1.000000   1.000000
   28       -9.714633     -9.506273   1.000000   1.000000
   29       -3.625025     -2.253357   1.000000   1.000000
   30       -3.281714     -1.845780   1.000000   1.000000
   31       -2.831481     -1.581088   1.000000   1.000000
   32       -2.776827     -1.459899   1.000000   1.000000
   33       -2.602246     -1.241023   1.000000   1.000000
   34       -2.579255     -1.175741   1.000000   1.000000
   35       -2.439358     -1.088842   1.000000   1.000000
   36       -2.429288     -0.884897   1.000000   1.000000
   37       -2.339566     -0.768619   1.000000   1.000000
   38       -2.215601     -0.467086   1.000000   1.000000
   39       -2.140073     -0.347102   1.000000   1.000000
   40       -2.102492     -0.199431   1.000000   1.000000
   41       -2.055298     -0.107260   1.000000   1.000000
   42       -2.005126      0.008769   1.000000   1.000000
   43       -1.872183      0.354171   1.000000   1.000000
   44       -1.714920      0.556836   1.000000   1.000000
   45       -1.530779      0.600175   1.000000   1.000000
   46       -1.455983      0.798323   1.000000   1.000000
   47       -1.324070      0.962834   1.000000   1.000000
   48       -1.155851      1.090385   1.000000   1.000000
   49       -0.900903      1.127003   1.000000   1.000000
   50       -0.837661      1.306565   1.000000   1.000000
   51       -0.809653      1.415659   1.000000   1.000000
   52       -0.549663      1.648961   1.000000   1.000000
   53       -0.513277      2.455878   1.000000   1.000000
   54       -0.333833      2.539696   1.000000   1.000000
   55       -0.048939      2.675986   1.000000   1.000000
   56        0.127326      2.845377   1.000000   1.000000
   57        0.220856      5.702803   1.000000   0.000000
   58        0.458682      5.955708   1.000000   0.000000
   59        0.515667      5.984393   1.000000   0.000000
   60        0.725369      6.237356   1.000000   0.000000
   61        0.807552      6.344602   1.000000   0.000000
   62        1.022968      6.404486   1.000000   0.000000
   63        1.223367      6.724959   1.000000   0.000000
   64        1.274235      6.863579   1.000000   0.000000
   65        1.549572      6.895083   1.000000   0.000000
   66        1.754188      7.154150   1.000000   0.000000
   67        1.826375      7.185666   1.000000   0.000000
   68        1.919091      7.241381   1.000000   0.000000
   69        2.089339      7.620676   1.000000   0.000000
   70        2.277622      7.719559   1.000000   0.000000
   71        2.457658      7.824192   1.000000   0.000000
   72        2.558563      7.938563   1.000000   0.000000
   73        7.463715      8.344605   0.000000   0.000000
   74        7.846994      8.805149   0.000000   0.000000
   75        8.233053      9.125668   0.000000   0.000000
   76        8.501775      9.368846   0.000000   0.000000
   77        8.641178      9.479890   0.000000   0.000000
   78        8.880898      9.770791   0.000000   0.000000
   79        9.233415      9.974014   0.000000   0.000000
   80        9.600377     10.228854   0.000000   0.000000
   81        9.860862     10.485581   0.000000   0.000000
   82       10.103896     10.605537   0.000000   0.000000
   83       10.241450     10.808540   0.000000   0.000000
   84       10.314887     10.898267   0.000000   0.000000
   85       10.618627     11.164298   0.000000   0.000000
   86       10.933638     11.447811   0.000000   0.000000
   87       11.054835     11.495294   0.000000   0.000000
   88       11.285055     11.757088   0.000000   0.000000
   89       11.390120     11.999395   0.000000   0.000000
   90       11.589504     12.129779   0.000000   0.000000
   91       11.876614     12.434475   0.000000   0.000000
   92       12.208599     12.660553   0.000000   0.000000
   93       12.374908     12.979165   0.000000   0.000000
   94       12.559387     13.109550   0.000000   0.000000
   95       12.771590     13.351895   0.000000   0.000000
   96       13.080405     13.651673   0.000000   0.000000
   97       13.317608     13.686788   0.000000   0.000000
   98       13.404188     13.863590   0.000000   0.000000
   99       13.508599     14.002746   0.000000   0.000000
  100       13.757489     14.051241   0.000000   0.000000

  0.5000000E+00  0.2000000E+00  0.1218878E-14  0.3333333E-01
    1      -57.269946    -51.021828   1.000000   1.000000
    2      -57.261232    -51.019201   1.000000   1.000000
    3      -57.075403    -50.983140   1.000000   1.000000
    4      -57.073997    -50.982177   1.000000   1.000000
    5      -56.886373    -50.835576   1.000000   1.000000
    6      -56.886103    -50.833729   1.000000   1.000000
    7      -55.905566    -50.688222   1.000000   1.000000