 120 120   0   0
  0.1228332E+02  0.1173587E-08  0.1121847E-08  0.1119562E-08  0.5000000E-15
  1.000000000000000E-004
  CAR 
 unknown system                          
     16.73248726    -54.73040354  301      4.40513860      1.00000000
    -54.730  0.0000E+00  0.0000E+00  0.0000E+00  0.0000E+00
    -54.492  0.0000E+00  0.0000E+00  0.0000E+00  0.0000E+00
    -54.254  0.0000E+00  0.0000E+00  0.0000E+00  0.0000E+00
    -54.016  0.0000E+00  0.0000E+00  0.0000E+00  0.0000E+00
    -53.778  0.0000E+00  0.0000E+00  0.0000E+00  0.0000E+00
    -53.539  0.0000E+00  0.0000E+00  0.0000E+00  0.0000E+00
    -53.301  0.0000E+00  0.0000E+00  0.0000E+00  0.0000E+00
    -53.063  0.0000E+00  0.0000E+00  0.0000E+00  0.0000E+00
    -52.825  0.0000E+00  0.0000E+00  0.0000E+00  0.0000E+00
    -52.587  0.0000E+00  0.0000E+00  0.0000E+00  0.0000E+00
    -52.348  0.0000E+00  0.0000E+00  0.0000E+00  0.0000E+00
    -52.110  0.0000E+00  0.0000E+00  0.0000E+00  0.0000E+00
    -51.872  0.0000E+00  0.0000E+00  0.0000E+00  0.0000E+00
    -51.634  0.2718E-03  0.0000E+00  0.6474E-04  0.0000E+00
    -51.395  0.9793E+02  0.0000E+00  0.2333E+02  0.0000E+00
    -51.157  0.2825E+01  0.0000E+00  0.2400E+02  0.0000E+00
    -50.919  0.0000E+00  0.0000E+00  0.2400E+02  0.0000E+00
    -50.681  0.0000E+00  0.0000E+00  0.2400E+02  0.0000E+00
    -50.443  0.2863E-09  0.0000E+00  0.2400E+02  0.0000E+00
    -50.204  0.4380E+02  0.0000E+00  0.3443E+02  0.0000E+00
    -49.966  0.1316E+03  0.0000E+00  0.6578E+02  0.0000E+00
    -49.728  0.2611E+02  0.0000E+00  0.7200E+02  0.0000E+00
    -49.490  0.0000E+00  0.0000E+00  0.7200E+02  0.0000E+00
    -49.252  0.0000E+00  0.0000E+00  0.7200E+02  0.0000E+00
    -49.013  0.0000E+00  0.0000E+00  0.7200E+02  0.0000E+00
    -48.775  0.0000E+00  0.0000E+00  0.7200E+02  0.0000E+00
    -48.537  0.0000E+00  0.0000E+00  0.7200E+02  0.0000E+00
    -48.299  0.0000E+00  0.0000E+00  0.7200E+02  0.0000E+00
    -48.061  0.0000E+00  0.0000E+00  0.7200E+02  0.0000E+00
    -47.822  0.0000E+00  0.0000E+00  0.7200E+02  0.0000E+00
    -47.584  0.0000E+00  0.0000E+00  0.7200E+02  0.0000E+00
    -47.346  0.0000E+00  0.0000E+00  0.7200E+02  0.0000E+00
    -47.108  0.0000E+00  0.0000E+00  0.7200E+02  0.0000E+00
    -46.869  0.0000E+00  0.6571E-01  0.7200E+02  0.1565E-01
    -46.631  0.0000E+00  0.1006E+03  0.7200E+02  0.2398E+02
    -46.393  0.0000E+00  0.9642E+02  0.7200E+02  0.4695E+02
    -46.155  0.0000E+00  0.1052E+03  0.7200E+02  0.7200E+02
    -45.917  0.0000E+00  0.0000E+00  0.7200E+02  0.7200E+02
    -45.678  0.0000E+00  0.0000E+00  0.7200E+02  0.7200E+02
    -45.440  0.0000E+00  0.0000E+00  0.7200E+02  0.7200E+02
    -45.202  0.0000E+00  0.0000E+00  0.7200E+02  0.7200E+02
    -44.964  0.0000E+00  0.0000E+00  0.7200E+02  0.7200E+02
    -44.726  0.0000E+00  0.0000E+00  0.7200E+02  0.7200E+02
    -44.487  0.0000E+00  0.0000E+00  0.7200E+02  0.7200E+02
    -44.249  0.0000E+00  0.0000E+00  0.7200E+02  0.7200E+02
    -44.011  0.0000E+00  0.0000E+00  0.7200E+02  0.7200E+02
    -43.773  0.0000E+00  0.0000E+00  0.7200E+02  0.7200E+02
    -43.535  0.0000E+00  0.0000E+00  0.7200E+02  0.7200E+02
    -43.296  0.0000E+00  0.0000E+00  0.7200E+02  0.7200E+02
    -43.058  0.0000E+00  0.0000E+00  0.7200E+02  0.7200E+02
    -42.820  0.0000E+00  0.0000E+00  0.7200E+02  0.7200E+02
    -42.582  0.0000E+00  0.0000E+00  0.7200E+02  0.7200E+02
    -42.344  0.0000E+00  0.0000E+00  0.7200E+02  0.7200E+02
    -42.105  0.0000E+00  0.0000E+00  0.7200E+02  0.7200E+02
    -41.867  0.0000E+00  0.0000E+00  0.7200E+02  0.7200E+02
    -41.629  0.0000E+00  0.0000E+00  0.7200E+02  0.7200E+02
    -41.391  0.0000E+00  0.0000E+00  0.7200E+02  0.7200E+02
    -41.152  0.0000E+00  0.0000E+00  0.7200E+02  0.7200E+02
    -40.914  0.0000E+00  0.0000E+00  0.7200E+02  0.7200E+02
    -40.676  0.2655E-03  0.8081E-04  0.7200E+02  0.7200E+02
    -40.438  0.9886E+02  0.9742E+02  0.9555E+02  0.9521E+02
    -40.200  0.1025E+03  0.1039E+03  0.1200E+03  0.1200E+03
    -39.961  0.1631E+00  0.1627E+00  0.1200E+03  0.1200E+03
    -39.723  0.0000E+00  0.0000E+00  0.1200E+03  0.1200E+03
    -39.485  0.0000E+00  0.0000E+00  0.1200E+03  0.1200E+03
    -39.247  0.0000E+00  0.0000E+00  0.1200E+03  0.1200E+03
    -39.009  0.0000E+00  0.0000E+00  0.1200E+03  0.1200E+03
    -38.770  0.0000E+00  0.0000E+00  0.1200E+03  0.1200E+03
    -38.532  0.0000E+00  0.0000E+00  0.1200E+03  0.1200E+03
    -38.294  0.0000E+00  0.0000E+00  0.1200E+03  0.1200E+03
    -38.056  0.0000E+00  0.0000E+00  0.1200E+03  0.1200E+03
    -37.818  0.0000E+00  0.0000E+00  0.1200E+03  0.1200E+03
    -37.579  0.0000E+00  0.0000E+00  0.1200E+03  0.1200E+03
    -37.341  0.0000E+00  0.0000E+00  0.1200E+03  0.1200E+03
    -37.103  0.0000E+00  0.0000E+00  0.1200E+03  0.1200E+03
    -36.865  0.0000E+00  0.0000E+00  0.1200E+03  0.1200E+03
    -36.626  0.0000E+00  0.0000E+00  0.1200E+03  0.1200E+03
    -36.388  0.0000E+00  0.0000E+00  0.1200E+03  0.1200E+03
    -36.150  0.0000E+00  0.0000E+00  0.1200E+03  0.1200E+03
    -35.912  0.0000E+00  0.0000E+00  0.1200E+03  0.1200E+03
    -35.674  0.0000E+00  0.0000E+00  0.1200E+03  0.1200E+03
    -35.435  0.0000E+00  0.0000E+00  0.1200E+03  0.1200E+03
    -35.197  0.0000E+00  0.0000E+00  0.1200E+03  0.1200E+03
    -34.959  0.0000E+00  0.0000E+00  0.1200E+03  0.1200E+03
    -34.721  0.0000E+00  0.0000E+00  0.1200E+03  0.1200E+03
    -34.483  0.0000E+00  0.0000E+00  0.1200E+03  0.1200E+03
    -34.244  0.0000E+00  0.0000E+00  0.1200E+03  0.1200E+03
    -34.006  0.0000E+00  0.0000E+00  0.1200E+03  0.1200E+03
    -33.768  0.0000E+00  0.0000E+00  0.1200E+03  0.1200E+03
    -33.530  0.0000E+00  0.0000E+00  0.1200E+03  0.1200E+03
    -33.292  0.0000E+00  0.0000E+00  0.1200E+03  0.1200E+03
    -33.053  0.0000E+00  0.0000E+00  0.1200E+03  0.1200E+03
    -32.815  0.0000E+00  0.0000E+00  0.1200E+03  0.1200E+03
    -32.577  0.0000E+00  0.0000E+00  0.1200E+03  0.1200E+03
    -32.339  0.0000E+00  0.0000E+00  0.1200E+03  0.1200E+03
    -32.100  0.0000E+00  0.0000E+00  0.1200E+03  0.1200E+03
    -31.862  0.0000E+00  0.0000E+00  0.1200E+03  0.1200E+03
    -31.624  0.0000E+00  0.0000E+00  0.1200E+03  0.1200E+03
    -31.386  0.0000E+00  0.0000E+00  0.1200E+03  0.1200E+03
    -31.148  0.0000E+00  0.0000E+00  0.1200E+03  0.1200E+03
    -30.909  0.0000E+00  0.0000E+00  0.1200E+03  0.1200E+03
    -30.671  0.0000E+00  0.0000E+00  0.1200E+03  0.1200E+03
    -30.433  0.0000E+00  0.0000E+00  0.1200E+03  0.1200E+03
    -30.195  0.0000E+00  0.0000E+00  0.1200E+03  0.1200E+03
    -29.957  0.0000E+00  0.0000E+00  0.1200E+03  0.1200E+03
    -29.718  0.0000E+00  0.0000E+00  0.1200E+03  0.1200E+03
    -29.480  0.0000E+00  0.0000E+00  0.1200E+03  0.1200E+03
    -29.242  0.0000E+00  0.0000E+00  0.1200E+03  0.1200E+03
    -29.004  0.0000E+00  0.0000E+00  0.1200E+03  0.1200E+03
    -28.766  0.0000E+00  0.0000E+00  0.1200E+03  0.1200E+03
    -28.527  0.0000E+00  0.0000E+00  0.1200E+03  0.1200E+03
    -28.289  0.0000E+00  0.0000E+00  0.1200E+03  0.1200E+03
    -28.051  0.0000E+00  0.0000E+00  0.1200E+03  0.1200E+03
    -27.813  0.0000E+00  0.0000E+00  0.1200E+03  0.1200E+03
    -27.575  0.0000E+00  0.0000E+00  0.1200E+03  0.1200E+03
    -27.336  0.0000E+00  0.0000E+00  0.1200E+03  0.1200E+03
    -27.098  0.0000E+00  0.0000E+00  0.1200E+03  0.1200E+03
    -26.860  0.0000E+00  0.0000E+00  0.1200E+03  0.1200E+03
    -26.622  0.0000E+00  0.0000E+00  0.1200E+03  0.1200E+03
    -26.383  0.0000E+00  0.0000E+00  0.1200E+03  0.1200E+03
    -26.145  0.0000E+00  0.0000E+00  0.1200E+03  0.1200E+03
    -25.907  0.0000E+00  0.0000E+00  0.1200E+03  0.1200E+03
    -25.669  0.0000E+00  0.0000E+00  0.1200E+03  0.1200E+03
    -25.431  0.0000E+00  0.0000E+00  0.1200E+03  0.1200E+03
    -25.192  0.0000E+00  0.0000E+00  0.1200E+03  0.1200E+03
    -24.954  0.0000E+00  0.0000E+00  0.1200E+03  0.1200E+03
    -24.716  0.0000E+00  0.0000E+00  0.1200E+03  0.1200E+03
    -24.478  0.0000E+00  0.0000E+00  0.1200E+03  0.1200E+03
    -24.240  0.0000E+00  0.0000E+00  0.1200E+03  0.1200E+03
    -24.001  0.0000E+00  0.0000E+00  0.1200E+03  0.1200E+03
    -23.763  0.0000E+00  0.0000E+00  0.1200E+03  0.1200E+03
    -23.525  0.0000E+00  0.0000E+00  0.1200E+03  0.1200E+03
    -23.287  0.0000E+00  0.0000E+00  0.1200E+03  0.1200E+03
    -23.049  0.0000E+00  0.0000E+00  0.1200E+03  0.1200E+03
    -22.810  0.0000E+00  0.0000E+00  0.1200E+03  0.1200E+03
    -22.572  0.0000E+00  0.0000E+00  0.1200E+03  0.1200E+03
    -22.334  0.0000E+00  0.0000E+00  0.1200E+03  0.1200E+03
    -22.096  0.0000E+00  0.0000E+00  0.1200E+03  0.1200E+03
    -21.857  0.0000E+00  0.0000E+00  0.1200E+03  0.1200E+03
    -21.619  0.0000E+00  0.0000E+00  0.1200E+03  0.1200E+03
    -21.381  0.0000E+00  0.0000E+00  0.1200E+03  0.1200E+03
    -21.143  0.0000E+00  0.0000E+00  0.1200E+03  0.1200E+03
    -20.905  0.0000E+00  0.0000E+00  0.1200E+03  0.1200E+03
    -20.666  0.0000E+00  0.0000E+00  0.1200E+03  0.1200E+03
    -20.428  0.0000E+00  0.0000E+00  0.1200E+03  0.1200E+03
    -20.190  0.0000E+00  0.0000E+00  0.1200E+03  0.1200E+03
    -19.952  0.0000E+00  0.0000E+00  0.1200E+03  0.1200E+03
    -19.714  0.0000E+00  0.0000E+00  0.1200E+03  0.1200E+03
    -19.475  0.0000E+00  0.0000E+00  0.1200E+03  0.1200E+03
    -19.237  0.0000E+00  0.0000E+00  0.1200E+03  0.1200E+03
    -18.999  0.0000E+00  0.0000E+00  0.1200E+03  0.1200E+03
    -18.761  0.0000E+00  0.0000E+00  0.1200E+03  0.1200E+03
    -18.523  0.0000E+00  0.0000E+00  0.1200E+03  0.1200E+03
    -18.284  0.0000E+00  0.0000E+00  0.1200E+03  0.1200E+03
    -18.046  0.0000E+00  0.0000E+00  0.1200E+03  0.1200E+03
    -17.808  0.0000E+00  0.0000E+00  0.1200E+03  0.1200E+03
    -17.570  0.0000E+00  0.0000E+00  0.1200E+03  0.1200E+03
    -17.331  0.0000E+00  0.0000E+00  0.1200E+03  0.1200E+03
    -17.093  0.0000E+00  0.0000E+00  0.1200E+03  0.1200E+03
    -16.855  0.0000E+00  0.0000E+00  0.1200E+03  0.1200E+03
    -16.617  0.0000E+00  0.0000E+00  0.1200E+03  0.1200E+03
    -16.379  0.0000E+00  0.0000E+00  0.1200E+03  0.1200E+03
    -16.140  0.0000E+00  0.0000E+00  0.1200E+03  0.1200E+03
    -15.902  0.0000E+00  0.0000E+00  0.1200E+03  0.1200E+03
    -15.664  0.0000E+00  0.0000E+00  0.1200E+03  0.1200E+03
    -15.426  0.0000E+00  0.0000E+00  0.1200E+03  0.1200E+03
    -15.188  0.0000E+00  0.0000E+00  0.1200E+03  0.1200E+03
    -14.949  0.0000E+00  0.0000E+00  0.1200E+03  0.1200E+03
    -14.711  0.0000E+00  0.0000E+00  0.1200E+03  0.1200E+03
    -14.473  0.0000E+00  0.0000E+00  0.1200E+03  0.1200E+03
    -14.235  0.0000E+00  0.0000E+00  0.1200E+03  0.1200E+03
    -13.997  0.0000E+00  0.0000E+00  0.1200E+03  0.1200E+03
    -13.758  0.1554E-08  0.0000E+00  0.1200E+03  0.1200E+03
    -13.520  0.9102E+01  0.2762E-15  0.1222E+03  0.1200E+03
    -13.282  0.6000E+02  0.3459E+00  0.1365E+03  0.1201E+03
    -13.044  0.3165E+02  0.6748E+02  0.1440E+03  0.1362E+03
    -12.806  0.2393E-03  0.3293E+02  0.1440E+03  0.1440E+03
    -12.567  0.0000E+00  0.2914E-04  0.1440E+03  0.1440E+03
    -12.329  0.0000E+00  0.0000E+00  0.1440E+03  0.1440E+03
    -12.091  0.0000E+00  0.0000E+00  0.1440E+03  0.1440E+03
    -11.853  0.0000E+00  0.0000E+00  0.1440E+03  0.1440E+03
    -11.614  0.0000E+00  0.0000E+00  0.1440E+03  0.1440E+03
    -11.376  0.0000E+00  0.0000E+00  0.1440E+03  0.1440E+03
    -11.138  0.0000E+00  0.0000E+00  0.1440E+03  0.1440E+03
    -10.900  0.0000E+00  0.0000E+00  0.1440E+03  0.1440E+03
    -10.662  0.0000E+00  0.0000E+00  0.1440E+03  0.1440E+03
    -10.423  0.0000E+00  0.0000E+00  0.1440E+03  0.1440E+03
    -10.185  0.0000E+00  0.0000E+00  0.1440E+03  0.1440E+03
     -9.947  0.0000E+00  0.0000E+00  0.1440E+03  0.1440E+03
     -9.709  0.0000E+00  0.0000E+00  0.1440E+03  0.1440E+03
     -9.471  0.0000E+00  0.0000E+00  0.1440E+03  0.1440E+03
     -9.232  0.0000E+00  0.0000E+00  0.1440E+03  0.1440E+03
     -8.994  0.0000E+00  0.0000E+00  0.1440E+03  0.1440E+03
     -8.756  0.0000E+00  0.0000E+00  0.1440E+03  0.1440E+03
     -8.518  0.0000E+00  0.0000E+00  0.1440E+03  0.1440E+03
     -8.280  0.0000E+00  0.0000E+00  0.1440E+03  0.1440E+03
     -8.041  0.0000E+00  0.0000E+00  0.1440E+03  0.1440E+03
     -7.803  0.1287E-01  0.3193E-15  0.1440E+03  0.1440E+03
     -7.565  0.1858E+02  0.1414E+00  0.1484E+03  0.1440E+03
     -7.327  0.4824E+02  0.2915E+02  0.1599E+03  0.1510E+03
     -7.088  0.3310E+02  0.4935E+02  0.1678E+03  0.1627E+03
     -6.850  0.8290E+00  0.2147E+02  0.1680E+03  0.1678E+03
     -6.612  0.0000E+00  0.6350E+00  0.1680E+03  0.1680E+03
     -6.374  0.0000E+00  0.0000E+00  0.1680E+03  0.1680E+03
     -6.136  0.0000E+00  0.0000E+00  0.1680E+03  0.1680E+03
     -5.897  0.0000E+00  0.0000E+00  0.1680E+03  0.1680E+03
     -5.659  0.0000E+00  0.0000E+00  0.1680E+03  0.1680E+03
     -5.421  0.0000E+00  0.0000E+00  0.1680E+03  0.1680E+03
     -5.183  0.0000E+00  0.0000E+00  0.1680E+03  0.1680E+03
     -4.945  0.0000E+00  0.0000E+00  0.1680E+03  0.1680E+03
     -4.706  0.0000E+00  0.0000E+00  0.1680E+03  0.1680E+03
     -4.468  0.0000E+00  0.0000E+00  0.1680E+03  0.1680E+03
     -4.230  0.0000E+00  0.0000E+00  0.1680E+03  0.1680E+03
     -3.992  0.0000E+00  0.0000E+00  0.1680E+03  0.1680E+03
     -3.754  0.0000E+00  0.0000E+00  0.1680E+03  0.1680E+03
     -3.515  0.0000E+00  0.0000E+00  0.1680E+03  0.1680E+03
     -3.277  0.0000E+00  0.0000E+00  0.1680E+03  0.1680E+03
     -3.039  0.0000E+00  0.0000E+00  0.1680E+03  0.1680E+03
     -2.801  0.0000E+00  0.0000E+00  0.1680E+03  0.1680E+03
     -2.562  0.0000E+00  0.0000E+00  0.1680E+03  0.1680E+03
     -2.324  0.0000E+00  0.0000E+00  0.1680E+03  0.1680E+03
     -2.086  0.2642E-05  0.0000E+00  0.1680E+03  0.1680E+03
     -1.848  0.8156E+01  0.0000E+00  0.1699E+03  0.1680E+03
     -1.610  0.5840E+02  0.0000E+00  0.1839E+03  0.1680E+03
     -1.371  0.4131E+02  0.0000E+00  0.1937E+03  0.1680E+03
     -1.133  0.3258E+02  0.0000E+00  0.2015E+03  0.1680E+03
     -0.895  0.5402E+02  0.2849E-08  0.2143E+03  0.1680E+03
     -0.657  0.5332E+02  0.1831E+01  0.2270E+03  0.1684E+03
     -0.419  0.6706E+02  0.1732E+02  0.2430E+03  0.1726E+03
     -0.180  0.5421E+02  0.3879E+02  0.2559E+03  0.1818E+03
      0.058  0.3445E+02  0.3504E+02  0.2641E+03  0.1901E+03
      0.296  0.5516E+02  0.2292E+02  0.2773E+03  0.1956E+03
      0.534  0.4764E+02  0.4866E+02  0.2886E+03  0.2072E+03
      0.772  0.3246E+02  0.4858E+02  0.2963E+03  0.2188E+03
      1.011  0.4990E+02  0.6844E+02  0.3082E+03  0.2351E+03
      1.249  0.4906E+02  0.2600E+02  0.3199E+03  0.2413E+03
      1.487  0.5431E+02  0.2302E+02  0.3328E+03  0.2468E+03
      1.725  0.6189E+02  0.3817E+02  0.3476E+03  0.2558E+03
      1.963  0.3401E+02  0.4597E+02  0.3557E+03  0.2668E+03
      2.202  0.2427E+02  0.2946E+02  0.3615E+03  0.2738E+03
      2.440  0.1367E+02  0.3577E+02  0.3647E+03  0.2823E+03
      2.678  0.3760E+02  0.2537E+02  0.3737E+03  0.2884E+03
      2.916  0.3867E+02  0.4571E+02  0.3829E+03  0.2993E+03
      3.155  0.3035E+02  0.4175E+02  0.3901E+03  0.3092E+03
      3.393  0.4380E+02  0.1445E+02  0.4006E+03  0.3127E+03
      3.631  0.5349E+02  0.3068E+02  0.4133E+03  0.3200E+03
      3.869  0.4726E+02  0.5695E+02  0.4246E+03  0.3335E+03
      4.107  0.2921E+02  0.1036E+02  0.4315E+03  0.3360E+03
      4.346  0.2031E+01  0.8247E-05  0.4320E+03  0.3360E+03
      4.584  0.0000E+00  0.0000E+00  0.4320E+03  0.3360E+03
      4.822  0.0000E+00  0.0000E+00  0.4320E+03  0.3360E+03
      5.060  0.0000E+00  0.0000E+00  0.4320E+03  0.3360E+03
      5.298  0.0000E+00  0.0000E+00  0.4320E+03  0.3360E+03
      5.537  0.0000E+00  0.0000E+00  0.4320E+03  0.3360E+03
      5.775  0.0000E+00  0.0000E+00  0.4320E+03  0.3360E+03
      6.013  0.0000E+00  0.4053E-02  0.4320E+03  0.3360E+03
      6.251  0.0000E+00  0.1911E+01  0.4320E+03  0.3365E+03
      6.489  0.0000E+00  0.1355E+02  0.4320E+03  0.3397E+03
      6.728  0.0000E+00  0.2694E+02  0.4320E+03  0.3461E+03
      6.966  0.0000E+00  0.2515E+02  0.4320E+03  0.3521E+03
      7.204  0.9093E-05  0.5760E+02  0.4320E+03  0.3658E+03
      7.442  0.1552E+00  0.7568E+02  0.4320E+03  0.3838E+03
      7.681  0.7357E+00  0.2940E+02  0.4322E+03  0.3908E+03
      7.919  0.1497E+01  0.4125E+02  0.4326E+03  0.4007E+03
      8.157  0.4819E+01  0.7797E+02  0.4337E+03  0.4192E+03
      8.395  0.7084E+01  0.5018E+02  0.4354E+03  0.4312E+03
      8.633  0.1573E+02  0.3788E+01  0.4392E+03  0.4321E+03
      8.872  0.2391E+02  0.1143E+01  0.4448E+03  0.4324E+03
      9.110  0.1973E+02  0.4486E+01  0.4495E+03  0.4334E+03
      9.348  0.1941E+02  0.1068E+02  0.4542E+03  0.4360E+03
      9.586  0.1987E+02  0.2096E+02  0.4589E+03  0.4410E+03
      9.824  0.2442E+02  0.2879E+02  0.4647E+03  0.4478E+03
     10.063  0.2204E+02  0.3012E+02  0.4700E+03  0.4550E+03
     10.301  0.1787E+02  0.3009E+02  0.4742E+03  0.4622E+03
     10.539  0.2469E+02  0.2580E+02  0.4801E+03  0.4683E+03
     10.777  0.1507E+02  0.2591E+02  0.4837E+03  0.4745E+03
     11.015  0.2732E+02  0.2436E+02  0.4902E+03  0.4803E+03
     11.254  0.4546E+02  0.1027E+02  0.5010E+03  0.4827E+03
     11.492  0.4868E+02  0.2580E+02  0.5126E+03  0.4889E+03
     11.730  0.3530E+02  0.3032E+02  0.5210E+03  0.4961E+03
     11.968  0.2030E+02  0.5661E+02  0.5259E+03  0.5096E+03
     12.207  0.2080E+02  0.4447E+02  0.5308E+03  0.5202E+03
     12.445  0.3002E+02  0.2683E+02  0.5380E+03  0.5266E+03
     12.683  0.3251E+02  0.2375E+02  0.5457E+03  0.5322E+03
     12.921  0.1861E+02  0.2756E+02  0.5502E+03  0.5388E+03
     13.159  0.7636E+01  0.3301E+02  0.5520E+03  0.5467E+03
     13.398  0.9115E-01  0.1829E+02  0.5520E+03  0.5510E+03
     13.636  0.0000E+00  0.4088E+01  0.5520E+03  0.5520E+03
     13.874  0.0000E+00  0.4210E-05  0.5520E+03  0.5520E+03
     14.112  0.0000E+00  0.0000E+00  0.5520E+03  0.5520E+03
     14.350  0.0000E+00  0.0000E+00  0.5520E+03  0.5520E+03
     14.589  0.0000E+00  0.0000E+00  0.5520E+03  0.5520E+03
     14.827  0.0000E+00  0.0000E+00  0.5520E+03  0.5520E+03
     15.065  0.0000E+00  0.0000E+00  0.5520E+03  0.5520E+03
     15.303  0.0000E+00  0.0000E+00  0.5520E+03  0.5520E+03
     15.541  0.0000E+00  0.0000E+00  0.5520E+03  0.5520E+03
     15.780  0.0000E+00  0.0000E+00  0.5520E+03  0.5520E+03
     16.018  0.0000E+00  0.0000E+00  0.5520E+03  0.5520E+03
     16.256  0.0000E+00  0.0000E+00  0.5520E+03  0.5520E+03
     16.494  0.0000E+00  0.0000E+00  0.5520E+03  0.5520E+03
     16.732  0.0000E+00  0.0000E+00  0.5520E+03  0.5520E+03
