 vasp.5.4.4.18Apr17-6-g9f103f2a35 (build Oct 25 2017 14:42:18) complex          
  
 executed on             LinuxIFC date 2021.04.16  14:36:21
 running on   48 total cores
 distrk:  each k-point on   24 cores,    2 groups
 distr:  one band on NCORES_PER_BAND=   6 cores,    4 groups


--------------------------------------------------------------------------------------------------------


 INCAR:
 POTCAR:    PAW_PBE Li_sv 10Sep2004               
 POTCAR:    PAW_PBE O 08Apr2002                   
 POTCAR:    PAW_PBE S 06Sep2000                   
 POTCAR:    PAW_PBE Fe_pv 02Aug2007               

 ----------------------------------------------------------------------------- 
|                                                                             |
|           W    W    AA    RRRRR   N    N  II  N    N   GGGG   !!!           |
|           W    W   A  A   R    R  NN   N  II  NN   N  G    G  !!!           |
|           W    W  A    A  R    R  N N  N  II  N N  N  G       !!!           |
|           W WW W  AAAAAA  RRRRR   N  N N  II  N  N N  G  GGG   !            |
|           WW  WW  A    A  R   R   N   NN  II  N   NN  G    G                |
|           W    W  A    A  R    R  N    N  II  N    N   GGGG   !!!           |
|                                                                             |
|      You have enabled k-point parallelism (KPAR>1).                         |
|      This developmental code was originally  written by Paul Kent at ORNL,  |
|      and carefully double checked in Vienna.                                |
|      GW as well as linear response parallelism added by Martijn Marsman     |
|      and Georg Kresse.                                                      |
|      Carefully verify results versus KPAR=1.                                |
|      Report problems to Paul Kent and Vienna.                               |
|                                                                             |
 ----------------------------------------------------------------------------- 

 POTCAR:    PAW_PBE Li_sv 10Sep2004               
  local pseudopotential read in
  atomic valenz-charges read in
  non local Contribution for L=           0  read in
    real space projection operators read in
  non local Contribution for L=           0  read in
    real space projection operators read in
  non local Contribution for L=           1  read in
    real space projection operators read in
    PAW grid and wavefunctions read in
 
   number of l-projection  operators is LMAX  =           3
   number of lm-projection operators is LMMAX =           5
 
 POTCAR:    PAW_PBE O 08Apr2002                   
  local pseudopotential read in
  partial core-charges read in
  partial kinetic energy density read in
  kinetic energy density of atom read in
  atomic valenz-charges read in
  non local Contribution for L=           0  read in
    real space projection operators read in
  non local Contribution for L=           0  read in
    real space projection operators read in
  non local Contribution for L=           1  read in
    real space projection operators read in
  non local Contribution for L=           1  read in
    real space projection operators read in
    PAW grid and wavefunctions read in
 
   number of l-projection  operators is LMAX  =           4
   number of lm-projection operators is LMMAX =           8
 
 POTCAR:    PAW_PBE S 06Sep2000                   
  local pseudopotential read in
  partial core-charges read in
  partial kinetic energy density read in
  atomic valenz-charges read in
  non local Contribution for L=           0  read in
    real space projection operators read in
  non local Contribution for L=           0  read in
    real space projection operators read in
  non local Contribution for L=           1  read in
    real space projection operators read in
  non local Contribution for L=           1  read in
    real space projection operators read in
    PAW grid and wavefunctions read in
 
   number of l-projection  operators is LMAX  =           4
   number of lm-projection operators is LMMAX =           8
 
 POTCAR:    PAW_PBE Fe_pv 02Aug2007               
  local pseudopotential read in
  partial core-charges read in
  partial kinetic energy density read in
  atomic valenz-charges read in
  non local Contribution for L=           1  read in
    real space projection operators read in
  non local Contribution for L=           1  read in
    real space projection operators read in
  non local Contribution for L=           2  read in
    real space projection operators read in
  non local Contribution for L=           2  read in
    real space projection operators read in
  non local Contribution for L=           0  read in
    real space projection operators read in
  non local Contribution for L=           0  read in
    real space projection operators read in
    PAW grid and wavefunctions read in
 
   number of l-projection  operators is LMAX  =           6
   number of lm-projection operators is LMMAX =          18
 

 ----------------------------------------------------------------------------- 
|                                                                             |
|  ADVICE TO THIS USER RUNNING 'VASP/VAMP'   (HEAR YOUR MASTER'S VOICE ...):  |
|                                                                             |
|      You have a (more or less) 'large supercell' and for larger cells       |
|      it might be more efficient to use real space projection opertators     |
|      So try LREAL= Auto  in the INCAR   file.                               |
|      Mind:          For very  accurate calculation you might also keep the  |
|      reciprocal projection scheme          (i.e. LREAL=.FALSE.)             |
|                                                                             |
 ----------------------------------------------------------------------------- 

  PAW_PBE Li_sv 10Sep2004               :
 energy of atom  1       EATOM= -202.7858
 kinetic energy error for atom=    0.0072 (will be added to EATOM!!)
  PAW_PBE O 08Apr2002                   :
 energy of atom  2       EATOM= -432.3788
 kinetic energy error for atom=    0.0129 (will be added to EATOM!!)
  PAW_PBE S 06Sep2000                   :
 energy of atom  3       EATOM= -276.8230
 kinetic energy error for atom=    0.0008 (will be added to EATOM!!)
  PAW_PBE Fe_pv 02Aug2007               :
 energy of atom  4       EATOM=-2457.4239
 kinetic energy error for atom=    0.0041 (will be added to EATOM!!)
 
 
 POSCAR: # Compound: Li48O24S24Fe24. Old comment:
  positions in direct lattice
  No initial velocities read in
 exchange correlation table for  LEXCH =        8
   RHO(1)=    0.500       N(1)  =     2000
   RHO(2)=  100.500       N(2)  =     4000
 


--------------------------------------------------------------------------------------------------------


 ion  position               nearest neighbor table
   1  0.035  0.363  0.356-  51 1.97  49 1.97  73 2.65
   2  0.369  0.363  0.356-  49 1.97  50 1.97  74 2.65
   3  0.702  0.363  0.356-  50 1.97  51 1.97  75 2.65
   4  0.035  0.863  0.356-  54 1.97  52 1.97  76 2.65
   5  0.369  0.863  0.356-  52 1.97  53 1.97  77 2.65
   6  0.702  0.863  0.356-  53 1.97  54 1.97  78 2.65
   7  0.035  0.363  0.856-  57 1.97  55 1.97  79 2.65
   8  0.369  0.363  0.856-  55 1.97  56 1.97  80 2.65
   9  0.702  0.363  0.856-  56 1.97  57 1.97  81 2.65
  10  0.035  0.863  0.856-  60 1.97  58 1.97  82 2.65
  11  0.369  0.863  0.856-  58 1.97  59 1.97  83 2.65
  12  0.702  0.863  0.856-  59 1.97  60 1.97  84 2.65
  13  0.035  0.113  0.144-  63 1.97  61 1.97  85 2.65
  14  0.369  0.113  0.144-  61 1.97  62 1.97  86 2.65
  15  0.702  0.113  0.144-  62 1.97  63 1.97  87 2.65
  16  0.035  0.613  0.144-  66 1.97  64 1.97  88 2.65
  17  0.369  0.613  0.144-  64 1.97  65 1.97  89 2.65
  18  0.702  0.613  0.144-  65 1.97  66 1.97  90 2.65
  19  0.035  0.113  0.644-  69 1.97  67 1.97  91 2.65
  20  0.369  0.113  0.644-  67 1.97  68 1.97  92 2.65
  21  0.702  0.113  0.644-  68 1.97  69 1.97  93 2.65
  22  0.035  0.613  0.644-  72 1.97  70 1.97  94 2.65
  23  0.369  0.613  0.644-  70 1.97  71 1.97  95 2.65
  24  0.702  0.613  0.644-  71 1.97  72 1.97  96 2.65
  25  0.202  0.219  0.272-  61 1.99  49 2.02  85 2.55  86 2.55
  26  0.535  0.219  0.272-  62 1.99  50 2.02  86 2.55  87 2.55
  27  0.869  0.219  0.272-  63 1.99  51 2.02  87 2.55  85 2.55
  28  0.202  0.719  0.272-  64 1.99  52 2.02  88 2.55  89 2.55
  29  0.535  0.719  0.272-  65 1.99  53 2.02  89 2.55  90 2.55
  30  0.869  0.719  0.272-  66 1.99  54 2.02  90 2.55  88 2.55
  31  0.202  0.219  0.772-  67 1.99  55 2.02  91 2.55  92 2.55
  32  0.535  0.219  0.772-  68 1.99  56 2.02  92 2.55  93 2.55
  33  0.869  0.219  0.772-  69 1.99  57 2.02  93 2.55  91 2.55
  34  0.202  0.719  0.772-  70 1.99  58 2.02  94 2.55  95 2.55
  35  0.535  0.719  0.772-  71 1.99  59 2.02  95 2.55  96 2.55
  36  0.869  0.719  0.772-  72 1.99  60 2.02  96 2.55  94 2.55
  37  0.202  0.469  0.228-  49 1.99  64 2.02  74 2.55  73 2.55
  38  0.535  0.469  0.228-  50 1.99  65 2.02  74 2.55  75 2.55
  39  0.869  0.469  0.228-  51 1.99  66 2.02  75 2.55  73 2.55
  40  0.202  0.969  0.228-  52 1.99  61 2.02  76 2.55  77 2.55
  41  0.535  0.969  0.228-  53 1.99  62 2.02  77 2.55  78 2.55
  42  0.869  0.969  0.228-  54 1.99  63 2.02  78 2.55  76 2.55
  43  0.202  0.469  0.728-  55 1.99  70 2.02  79 2.55  80 2.55
  44  0.535  0.469  0.728-  56 1.99  71 2.02  80 2.55  81 2.55
  45  0.869  0.469  0.728-  57 1.99  72 2.02  81 2.55  79 2.55
  46  0.202  0.969  0.728-  58 1.99  67 2.02  82 2.55  83 2.55
  47  0.535  0.969  0.728-  59 1.99  68 2.02  83 2.55  84 2.55
  48  0.869  0.969  0.728-  60 1.99  69 2.02  84 2.55  82 2.55
  49  0.202  0.368  0.374-   2 1.97   1 1.97  37 1.99 100 2.01  25 2.02 115 2.02
  50  0.535  0.368  0.374-   3 1.97   2 1.97  38 1.99 101 2.01  26 2.02 116 2.02
  51  0.869  0.368  0.374-   1 1.97   3 1.97  39 1.99 102 2.01  27 2.02 117 2.02
  52  0.202  0.868  0.374-   5 1.97   4 1.97  40 1.99  97 2.01  28 2.02 118 2.02
  53  0.535  0.868  0.374-   6 1.97   5 1.97  41 1.99  98 2.01  29 2.02 119 2.02
  54  0.869  0.868  0.374-   4 1.97   6 1.97  42 1.99  99 2.01  30 2.02 120 2.02
  55  0.202  0.368  0.874-   8 1.97   7 1.97  43 1.99 106 2.01  31 2.02 109 2.02
  56  0.535  0.368  0.874-   9 1.97   8 1.97  44 1.99 107 2.01  32 2.02 110 2.02
  57  0.869  0.368  0.874-   7 1.97   9 1.97  45 1.99 108 2.01  33 2.02 111 2.02
  58  0.202  0.868  0.874-  11 1.97  10 1.97  46 1.99 103 2.01  34 2.02 112 2.02
  59  0.535  0.868  0.874-  12 1.97  11 1.97  47 1.99 104 2.01  35 2.02 113 2.02
  60  0.869  0.868  0.874-  10 1.97  12 1.97  48 1.99 105 2.01  36 2.02 114 2.02
  61  0.202  0.118  0.126-  14 1.97  13 1.97  25 1.99 109 2.01  40 2.02 103 2.02
  62  0.535  0.118  0.126-  15 1.97  14 1.97  26 1.99 110 2.01  41 2.02 104 2.02
  63  0.869  0.118  0.126-  13 1.97  15 1.97  27 1.99 111 2.01  42 2.02 105 2.02
  64  0.202  0.618  0.126-  17 1.97  16 1.97  28 1.99 112 2.01  37 2.02 106 2.02
  65  0.535  0.618  0.126-  18 1.97  17 1.97  29 1.99 113 2.01  38 2.02 107 2.02
  66  0.869  0.618  0.126-  16 1.97  18 1.97  30 1.99 114 2.01  39 2.02 108 2.02
  67  0.202  0.118  0.626-  20 1.97  19 1.97  31 1.99 115 2.01  46 2.02  97 2.02
  68  0.535  0.118  0.626-  21 1.97  20 1.97  32 1.99 116 2.01  47 2.02  98 2.02
  69  0.869  0.118  0.626-  19 1.97  21 1.97  33 1.99 117 2.01  48 2.02  99 2.02
  70  0.202  0.618  0.626-  23 1.97  22 1.97  34 1.99 118 2.01  43 2.02 100 2.02
  71  0.535  0.618  0.626-  24 1.97  23 1.97  35 1.99 119 2.01  44 2.02 101 2.02
  72  0.869  0.618  0.626-  22 1.97  24 1.97  36 1.99 120 2.01  45 2.02 102 2.02
  73  0.035  0.369  0.120-  37 2.55  39 2.55 111 2.55 109 2.55   1 2.65
  74  0.369  0.370  0.120-  38 2.55  37 2.55 109 2.56 110 2.56   2 2.65
  75  0.702  0.370  0.120-  39 2.55  38 2.55 110 2.56 111 2.56   3 2.65
  76  0.035  0.870  0.120-  40 2.55  42 2.55 114 2.56 112 2.56   4 2.65
  77  0.369  0.870  0.120-  41 2.55  40 2.55 112 2.56 113 2.56   5 2.65
  78  0.702  0.870  0.120-  42 2.55  41 2.55 113 2.56 114 2.56   6 2.65
  79  0.035  0.370  0.620-  43 2.55  45 2.55 117 2.56 115 2.56   7 2.65
  80  0.369  0.370  0.620-  44 2.55  43 2.55 115 2.56 116 2.56   8 2.65
  81  0.702  0.370  0.620-  45 2.55  44 2.55 116 2.56 117 2.56   9 2.65
  82  0.035  0.870  0.620-  46 2.55  48 2.55 120 2.56 118 2.56  10 2.65
  83  0.369  0.870  0.620-  47 2.55  46 2.55 118 2.56 119 2.56  11 2.65
  84  0.702  0.870  0.620-  48 2.55  47 2.55 119 2.56 120 2.56  12 2.65
  85  0.035  0.120  0.380-  25 2.55  27 2.55  99 2.56  97 2.56  13 2.65
  86  0.369  0.120  0.380-  26 2.55  25 2.55  97 2.56  98 2.56  14 2.65
  87  0.702  0.120  0.380-  27 2.55  26 2.55  98 2.56  99 2.56  15 2.65
  88  0.035  0.620  0.380-  28 2.55  30 2.55 102 2.56 100 2.56  16 2.65
  89  0.369  0.620  0.380-  29 2.55  28 2.55 100 2.56 101 2.56  17 2.65
  90  0.702  0.620  0.380-  30 2.55  29 2.55 101 2.56 102 2.56  18 2.65
  91  0.035  0.120  0.880-  31 2.55  33 2.55 105 2.56 103 2.56  19 2.65
  92  0.369  0.120  0.880-  32 2.55  31 2.55 103 2.56 104 2.56  20 2.65
  93  0.702  0.120  0.880-  33 2.55  32 2.55 104 2.56 105 2.56  21 2.65
  94  0.035  0.620  0.880-  34 2.55  36 2.55 108 2.56 106 2.56  22 2.65
  95  0.369  0.620  0.880-  35 2.55  34 2.55 106 2.56 107 2.56  23 2.65
  96  0.702  0.620  0.880-  36 2.55  35 2.55 107 2.56 108 2.56  24 2.65
  97  0.202  0.012  0.480-  52 2.01  67 2.02  86 2.56  85 2.56
  98  0.535  0.012  0.480-  53 2.01  68 2.02  87 2.56  86 2.56
  99  0.869  0.012  0.480-  54 2.01  69 2.02  85 2.56  87 2.56
 100  0.202  0.512  0.480-  49 2.01  70 2.02  89 2.56  88 2.56
 101  0.535  0.512  0.480-  50 2.01  71 2.02  90 2.56  89 2.56
 102  0.869  0.512  0.480-  51 2.01  72 2.02  88 2.56  90 2.56
 103  0.202  0.012  0.980-  58 2.01  61 2.02  92 2.56  91 2.56
 104  0.535  0.012  0.980-  59 2.01  62 2.02  93 2.56  92 2.56
 105  0.869  0.012  0.980-  60 2.01  63 2.02  91 2.56  93 2.56
 106  0.202  0.512  0.980-  55 2.01  64 2.02  95 2.56  94 2.56
 107  0.535  0.512  0.980-  56 2.01  65 2.02  96 2.56  95 2.56
 108  0.869  0.512  0.980-  57 2.01  66 2.02  94 2.56  96 2.56
 109  0.202  0.262  0.020-  61 2.01  55 2.02  73 2.55  74 2.56
 110  0.535  0.262  0.020-  62 2.01  56 2.02  75 2.56  74 2.56
 111  0.869  0.262  0.020-  63 2.01  57 2.02  73 2.55  75 2.56
 112  0.202  0.762  0.020-  64 2.01  58 2.02  77 2.56  76 2.56
 113  0.535  0.762  0.020-  65 2.01  59 2.02  78 2.56  77 2.56
 114  0.869  0.762  0.020-  66 2.01  60 2.02  76 2.56  78 2.56
 115  0.202  0.262  0.520-  67 2.01  49 2.02  80 2.56  79 2.56
 116  0.535  0.262  0.520-  68 2.01  50 2.02  81 2.56  80 2.56
 117  0.869  0.262  0.520-  69 2.01  51 2.02  79 2.56  81 2.56
 118  0.202  0.762  0.520-  70 2.01  52 2.02  83 2.56  82 2.56
 119  0.535  0.762  0.520-  71 2.01  53 2.02  84 2.56  83 2.56
 120  0.869  0.762  0.520-  72 2.01  54 2.02  82 2.56  84 2.56
 

IMPORTANT INFORMATION: All symmetrisations will be switched off!
NOSYMM: (Re-)initialisation of all symmetry stuff for point group C_1.

 
 
 KPOINTS: # No comment                            

Automatic generation of k-mesh.
Space group operators:
 irot       det(A)        alpha          n_x          n_y          n_z        tau_x        tau_y        tau_z
    1     1.000000     0.000000     1.000000     0.000000     0.000000     0.000000     0.000000     0.000000
 
 Subroutine IBZKPT returns following result:
 ===========================================
 
 Found     14 irreducible k-points:
 
 Following reciprocal coordinates:
            Coordinates               Weight
  0.000000  0.000000  0.000000      1.000000
  0.333333  0.000000  0.000000      2.000000
  0.000000  0.333333  0.000000      2.000000
  0.333333  0.333333  0.000000      2.000000
 -0.333333  0.333333  0.000000      2.000000
  0.000000  0.000000  0.333333      2.000000
  0.333333  0.000000  0.333333      2.000000
 -0.333333  0.000000  0.333333      2.000000
  0.000000  0.333333  0.333333      2.000000
  0.333333  0.333333  0.333333      2.000000
 -0.333333  0.333333  0.333333      2.000000
 -0.000000 -0.333333  0.333333      2.000000
  0.333333 -0.333333  0.333333      2.000000
 -0.333333 -0.333333  0.333333      2.000000
 
 Following cartesian coordinates:
            Coordinates               Weight
  0.000000  0.000000  0.000000      1.000000
  0.028403 -0.000139  0.000000      2.000000
  0.000145  0.029713  0.000000      2.000000
  0.028548  0.029574  0.000000      2.000000
 -0.028257  0.029851  0.000000      2.000000
  0.000000  0.000000  0.029774      2.000000
  0.028403 -0.000139  0.029774      2.000000
 -0.028403  0.000139  0.029774      2.000000
  0.000145  0.029713  0.029774      2.000000
  0.028548  0.029574  0.029774      2.000000
 -0.028257  0.029851  0.029774      2.000000
 -0.000145 -0.029713  0.029774      2.000000
  0.028257 -0.029851  0.029774      2.000000
 -0.028548 -0.029574  0.029774      2.000000
 


--------------------------------------------------------------------------------------------------------




 Dimension of arrays:
   k-points           NKPTS =     14   k-points in BZ     NKDIM =     14   number of bands    NBANDS=    552
   number of dos      NEDOS =    301   number of ions     NIONS =    120
   non local maximal  LDIM  =      6   non local SUM 2l+1 LMDIM =     18
   total plane-waves  NPLWV = 903168
   max r-space proj   IRMAX =      1   max aug-charges    IRDMAX= 154614
   dimension x,y,z NGX =    98 NGY =   96 NGZ =   96
   dimension x,y,z NGXF=   196 NGYF=  192 NGZF=  192
   support grid    NGXF=   392 NGYF=  384 NGZF=  384
   ions per type =              48  24  24  24
   NGX,Y,Z   is equivalent  to a cutoff of  13.88, 14.23, 14.26 a.u.
   NGXF,Y,Z  is equivalent  to a cutoff of  27.76, 28.45, 28.51 a.u.

 SYSTEM =  unknown system                          
 POSCAR =  # Compound: Li48O24S24Fe24. Old comment:

 Startparameter for this run:
   NWRITE =      1    write-flag & timer
   PREC   = accura    normal or accurate (medium, high low for compatibility)
   ISTART =      0    job   : 0-new  1-cont  2-samecut
   ICHARG =      1    charge: 1-file 2-atom 10-const
   ISPIN  =      2    spin polarized calculation?
   LNONCOLLINEAR =      F non collinear calculations
   LSORBIT =      F    spin-orbit coupling
   INIWAV =      1    electr: 0-lowe 1-rand  2-diag
   LASPH  =      T    aspherical Exc in radial PAW
   METAGGA=      F    non-selfconsistent MetaGGA calc.

 Electronic Relaxation 1
   ENCUT  =  650.0 eV  47.77 Ry    6.91 a.u.  24.40 23.32 23.27*2*pi/ulx,y,z
   ENINI  =  650.0     initial cutoff
   ENAUG  =  628.9 eV  augmentation charge cutoff
   NELM   =    200;   NELMIN=  8; NELMDL=  0     # of ELM steps 
   EDIFF  = 0.1E-05   stopping-criterion for ELM
   LREAL  =      F    real-space projection
   NLSPLINE    = F    spline interpolate recip. space projectors
   LCOMPAT=      F    compatible to vasp.4.4
   GGA_COMPAT  = T    GGA compatible to vasp.4.4-vasp.4.6
   LMAXPAW     = -100 max onsite density
   LMAXMIX     =    4 max onsite mixed and CHGCAR
   VOSKOWN=      0    Vosko Wilk Nusair interpolation
   ROPT   =    0.00000   0.00000   0.00000   0.00000
 Ionic relaxation
   EDIFFG = 0.1E-04   stopping-criterion for IOM
   NSW    =      0    number of steps for IOM
   NBLOCK =      1;   KBLOCK =      1    inner block; outer block 
   IBRION =     -1    ionic relax: 0-MD 1-quasi-New 2-CG
   NFREE  =      0    steps in history (QN), initial steepest desc. (CG)
   ISIF   =      3    stress and relaxation
   IWAVPR =     10    prediction:  0-non 1-charg 2-wave 3-comb
   ISYM   =      0    0-nonsym 1-usesym 2-fastsym
   LCORR  =      T    Harris-Foulkes like correction to forces

   POTIM  = 0.5000    time-step for ionic-motion
   TEIN   =    0.0    initial temperature
   TEBEG  =    0.0;   TEEND  =   0.0 temperature during run
   SMASS  =  -3.00    Nose mass-parameter (am)
   estimated Nose-frequenzy (Omega)   =  0.10E-29 period in steps =****** mass=  -0.315E-26a.u.
   SCALEE = 1.0000    scale energy and forces
   NPACO  =    256;   APACO  = 16.0  distance and # of slots for P.C.
   PSTRESS=    0.0 pullay stress

  Mass of Ions in am
   POMASS =   7.01 16.00 32.07 55.85
  Ionic Valenz
   ZVAL   =   3.00  6.00  6.00 14.00
  Atomic Wigner-Seitz radii
   RWIGS  =  -1.00 -1.00 -1.00 -1.00
  virtual crystal weights 
   VCA    =   1.00  1.00  1.00  1.00
   NELECT =     768.0000    total number of electrons
   NUPDOWN=      -1.0000    fix difference up-down

 DOS related values:
   EMIN   =  10.00;   EMAX   =-10.00  energy-range for DOS
   EFERMI =   0.00
   ISMEAR =     0;   SIGMA  =   0.05  broadening in eV -4-tet -1-fermi 0-gaus

 Electronic relaxation 2 (details)
   IALGO  =     38    algorithm
   LDIAG  =      T    sub-space diagonalisation (order eigenvalues)
   LSUBROT=      F    optimize rotation matrix (better conditioning)
   TURBO    =      0    0=normal 1=particle mesh
   IRESTART =      0    0=no restart 2=restart with 2 vectors
   NREBOOT  =      0    no. of reboots
   NMIN     =      0    reboot dimension
   EREF     =   0.00    reference energy to select bands
   IMIX   =      4    mixing-type and parameters
     AMIX     =   0.40;   BMIX     =  1.00
     AMIX_MAG =   1.60;   BMIX_MAG =  1.00
     AMIN     =   0.10
     WC   =   100.;   INIMIX=   1;  MIXPRE=   1;  MAXMIX= -45

 Intra band minimization:
   WEIMIN = 0.0000     energy-eigenvalue tresh-hold
   EBREAK =  0.45E-09  absolut break condition
   DEPER  =   0.30     relativ break condition  

   TIME   =   0.40     timestep for ELM

  volume/ion in A,a.u.               =      12.28        82.89
  Fermi-wavevector in a.u.,A,eV,Ry     =   1.317335  2.489402 23.611165  1.735372
  Thomas-Fermi vector in A             =   2.447383
 
 Write flags
   LWAVE        =      F    write WAVECAR
   LDOWNSAMPLE  =      F    k-point downsampling of WAVECAR
   LCHARG       =      T    write CHGCAR
   LVTOT        =      F    write LOCPOT, total local potential
   LVHAR        =      F    write LOCPOT, Hartree potential only
   LELF         =      F    write electronic localiz. function (ELF)
   LORBIT       =      0    0 simple, 1 ext, 2 COOP (PROOUT), +10 PAW based schemes


 Dipole corrections
   LMONO  =      F    monopole corrections only (constant potential shift)
   LDIPOL =      F    correct potential (dipole corrections)
   IDIPOL =      0    1-x, 2-y, 3-z, 4-all directions 
   EPSILON=  1.0000000 bulk dielectric constant

 LDA+U is selected, type is set to LDAUTYPE =  2
   angular momentum for each species LDAUL =    -1   -1   -1    2
   U (eV)           for each species LDAUU =   0.0  0.0  0.0  4.0
   J (eV)           for each species LDAUJ =   0.0  0.0  0.0  0.0
 Exchange correlation treatment:
   GGA     =    PE    GGA type
   LEXCH   =     8    internal setting for exchange type
   VOSKOWN=      0    Vosko Wilk Nusair interpolation
   LHFCALC =     F    Hartree Fock is set to
   LHFONE  =     F    Hartree Fock one center treatment
   AEXX    =    0.0000 exact exchange contribution

 Linear response parameters
   LEPSILON=     F    determine dielectric tensor
   LRPA    =     F    only Hartree local field effects (RPA)
   LNABLA  =     F    use nabla operator in PAW spheres
   LVEL    =     F    velocity operator in full k-point grid
   LINTERFAST=   F  fast interpolation
   KINTER  =     0    interpolate to denser k-point grid
   CSHIFT  =0.1000    complex shift for real part using Kramers Kronig
   OMEGAMAX=  -1.0    maximum frequency
   DEG_THRESHOLD= 0.2000000E-02 threshold for treating states as degnerate
   RTIME   =   -0.100 relaxation time in fs
  (WPLASMAI=    0.000 imaginary part of plasma frequency in eV, 0.658/RTIME)
   DFIELD  = 0.0000000 0.0000000 0.0000000 field for delta impulse in time
 
 Orbital magnetization related:
   ORBITALMAG=     F  switch on orbital magnetization
   LCHIMAG   =     F  perturbation theory with respect to B field
   DQ        =  0.001000  dq finite difference perturbation B field
   LLRAUG    =     F  two centre corrections for induced B field



--------------------------------------------------------------------------------------------------------


 Static calculation
 charge density and potential will be updated during run
 spin polarized calculation
 Variant of blocked Davidson
 Davidson routine will perform the subspace rotation
 perform sub-space diagonalisation
    after iterative eigenvector-optimisation
 modified Broyden-mixing scheme, WC =      100.0
 initial mixing is a Kerker type mixing with AMIX =  0.4000 and BMIX =      1.0000
 Hartree-type preconditioning will be used
 using additional bands          168
 reciprocal scheme for non local part
 use partial core corrections
 calculate Harris-corrections to forces 
   (improved forces if not selfconsistent)
 use gradient corrections 
 use of overlap-Matrix (Vanderbilt PP)
 Gauss-broadening in eV      SIGMA  =   0.05


--------------------------------------------------------------------------------------------------------


  energy-cutoff  :      650.00
  volume of cell :     1474.00
      direct lattice vectors                 reciprocal lattice vectors
    11.735727240 -0.057442860  0.000000000     0.085207850 -0.000416288  0.000000000
     0.054807880 11.218334900  0.000000000     0.000436302  0.089137657  0.000000000
     0.000000000  0.000000000 11.195620100     0.000000000  0.000000000  0.089320644

  length of vectors
    11.735867822 11.218468783 11.195620100     0.085208867  0.089138725  0.089320644


 
 k-points in units of 2pi/SCALE and weight: # No comment                            
   0.00000000  0.00000000  0.00000000       0.037
   0.02840262 -0.00013876  0.00000000       0.074
   0.00014543  0.02971255  0.00000000       0.074
   0.02854805  0.02957379  0.00000000       0.074
  -0.02825718  0.02985132  0.00000000       0.074
   0.00000000  0.00000000  0.02977355       0.074
   0.02840262 -0.00013876  0.02977355       0.074
  -0.02840262  0.00013876  0.02977355       0.074
   0.00014543  0.02971255  0.02977355       0.074
   0.02854805  0.02957379  0.02977355       0.074
  -0.02825718  0.02985132  0.02977355       0.074
  -0.00014543 -0.02971255  0.02977355       0.074
   0.02825718 -0.02985132  0.02977355       0.074
  -0.02854805 -0.02957379  0.02977355       0.074
 
 k-points in reciprocal lattice and weights: # No comment                            
   0.00000000  0.00000000  0.00000000       0.037
   0.33333333  0.00000000  0.00000000       0.074
   0.00000000  0.33333333  0.00000000       0.074
   0.33333333  0.33333333  0.00000000       0.074
  -0.33333333  0.33333333  0.00000000       0.074
   0.00000000  0.00000000  0.33333333       0.074
   0.33333333  0.00000000  0.33333333       0.074
  -0.33333333  0.00000000  0.33333333       0.074
   0.00000000  0.33333333  0.33333333       0.074
   0.33333333  0.33333333  0.33333333       0.074
  -0.33333333  0.33333333  0.33333333       0.074
  -0.00000000 -0.33333333  0.33333333       0.074
   0.33333333 -0.33333333  0.33333333       0.074
  -0.33333333 -0.33333333  0.33333333       0.074
 
 position of ions in fractional coordinates (direct lattice) 
   0.03541706  0.36277547  0.35648149
   0.36875039  0.36277547  0.35648149
   0.70208372  0.36277547  0.35648149
   0.03541706  0.86277547  0.35648149
   0.36875039  0.86277547  0.35648149
   0.70208372  0.86277547  0.35648149
   0.03541706  0.36277547  0.85648149
   0.36875039  0.36277547  0.85648149
   0.70208372  0.36277547  0.85648149
   0.03541706  0.86277547  0.85648149
   0.36875039  0.86277547  0.85648149
   0.70208372  0.86277547  0.85648149
   0.03541706  0.11277547  0.14351851
   0.36875039  0.11277547  0.14351851
   0.70208372  0.11277547  0.14351851
   0.03541706  0.61277547  0.14351851
   0.36875039  0.61277547  0.14351851
   0.70208372  0.61277547  0.14351851
   0.03541706  0.11277547  0.64351851
   0.36875039  0.11277547  0.64351851
   0.70208372  0.11277547  0.64351851
   0.03541706  0.61277547  0.64351851
   0.36875039  0.61277547  0.64351851
   0.70208372  0.61277547  0.64351851
   0.20209458  0.21898060  0.27246215
   0.53542792  0.21898060  0.27246215
   0.86876125  0.21898060  0.27246215
   0.20209458  0.71898060  0.27246215
   0.53542792  0.71898060  0.27246215
   0.86876125  0.71898060  0.27246215
   0.20209458  0.21898060  0.77246215
   0.53542792  0.21898060  0.77246215
   0.86876125  0.21898060  0.77246215
   0.20209458  0.71898060  0.77246215
   0.53542792  0.71898060  0.77246215
   0.86876125  0.71898060  0.77246215
   0.20209458  0.46898060  0.22753785
   0.53542792  0.46898060  0.22753785
   0.86876125  0.46898060  0.22753785
   0.20209458  0.96898060  0.22753785
   0.53542792  0.96898060  0.22753785
   0.86876125  0.96898060  0.22753785
   0.20209458  0.46898060  0.72753785
   0.53542792  0.46898060  0.72753785
   0.86876125  0.46898060  0.72753785
   0.20209458  0.96898060  0.72753785
   0.53542792  0.96898060  0.72753785
   0.86876125  0.96898060  0.72753785
   0.20209064  0.36769237  0.37376509
   0.53542398  0.36769237  0.37376509
   0.86875731  0.36769237  0.37376509
   0.20209064  0.86769237  0.37376509
   0.53542398  0.86769237  0.37376509
   0.86875731  0.86769237  0.37376509
   0.20209064  0.36769237  0.87376509
   0.53542398  0.36769237  0.87376509
   0.86875731  0.36769237  0.87376509
   0.20209064  0.86769237  0.87376509
   0.53542398  0.86769237  0.87376509
   0.86875731  0.86769237  0.87376509
   0.20209064  0.11769237  0.12623491
   0.53542398  0.11769237  0.12623491
   0.86875731  0.11769237  0.12623491
   0.20209064  0.61769237  0.12623491
   0.53542398  0.61769237  0.12623491
   0.86875731  0.61769237  0.12623491
   0.20209064  0.11769237  0.62623491
   0.53542398  0.11769237  0.62623491
   0.86875731  0.11769237  0.62623491
   0.20209064  0.61769237  0.62623491
   0.53542398  0.61769237  0.62623491
   0.86875731  0.61769237  0.62623491
   0.03542751  0.36922808  0.12029448
   0.36876084  0.37011947  0.12029448
   0.70209418  0.37011947  0.12029448
   0.03542751  0.87011947  0.12029448
   0.36876084  0.87011947  0.12029448
   0.70209418  0.87011947  0.12029448
   0.03542751  0.37011947  0.62029448
   0.36876084  0.37011947  0.62029448
   0.70209418  0.37011947  0.62029448
   0.03542751  0.87011947  0.62029448
   0.36876084  0.87011947  0.62029448
   0.70209418  0.87011947  0.62029448
   0.03542751  0.12011947  0.37970552
   0.36876084  0.12011947  0.37970552
   0.70209418  0.12011947  0.37970552
   0.03542751  0.62011947  0.37970552
   0.36876084  0.62011947  0.37970552
   0.70209418  0.62011947  0.37970552
   0.03542751  0.12011947  0.87970552
   0.36876084  0.12011947  0.87970552
   0.70209418  0.12011947  0.87970552
   0.03542751  0.62011947  0.87970552
   0.36876084  0.62011947  0.87970552
   0.70209418  0.62011947  0.87970552
   0.20209387  0.01225309  0.48003463
   0.53542720  0.01225309  0.48003463
   0.86876054  0.01225309  0.48003463
   0.20209387  0.51225309  0.48003463
   0.53542720  0.51225309  0.48003463
   0.86876054  0.51225309  0.48003463
   0.20209387  0.01225309  0.98003463
   0.53542720  0.01225309  0.98003463
   0.86876054  0.01225309  0.98003463
   0.20209387  0.51225309  0.98003463
   0.53542720  0.51225309  0.98003463
   0.86876054  0.51225309  0.98003463
   0.20209387  0.26225309  0.01996537
   0.53542720  0.26225309  0.01996537
   0.86876054  0.26225309  0.01996537
   0.20209387  0.76225309  0.01996537
   0.53542720  0.76225309  0.01996537
   0.86876054  0.76225309  0.01996537
   0.20209387  0.26225309  0.51996537
   0.53542720  0.26225309  0.51996537
   0.86876054  0.26225309  0.51996537
   0.20209387  0.76225309  0.51996537
   0.53542720  0.76225309  0.51996537
   0.86876054  0.76225309  0.51996537
 
 position of ions in cartesian coordinates  (Angst):
   0.43552787  4.06770226  3.99103128
   4.34743695  4.04855464  3.99103128
   8.25934603  4.02940702  3.99103128
   0.46293181  9.67686971  3.99103128
   4.37484089  9.65772209  3.99103128
   8.28674997  9.63857447  3.99103128
   0.43552787  4.06770226  9.58884133
   4.34743695  4.04855464  9.58884133
   8.25934603  4.02940702  9.58884133
   0.46293181  9.67686971  9.58884133
   4.37484089  9.65772209  9.58884133
   8.28674997  9.63857447  9.58884133
   0.42182590  1.26311853  1.60677877
   4.33373498  1.24397091  1.60677877
   8.24564406  1.22482329  1.60677877
   0.44922984  6.87228598  1.60677877
   4.36113892  6.85313836  1.60677877
   8.27304800  6.83399074  1.60677877
   0.42182590  1.26311853  7.20458882
   4.33373498  1.24397091  7.20458882
   8.24564406  1.22482329  7.20458882
   0.44922984  6.87228598  7.20458882
   4.36113892  6.85313836  7.20458882
   8.27304800  6.83399074  7.20458882
   2.38372877  2.44498882  3.05038272
   6.29563785  2.42584120  3.05038272
  10.20754693  2.40669358  3.05038272
   2.41113271  8.05415627  3.05038272
   6.32304179  8.03500865  3.05038272
  10.23495087  8.01586103  3.05038272
   2.38372877  2.44498882  8.64819277
   6.29563785  2.42584120  8.64819277
  10.20754693  2.40669358  8.64819277
   2.41113271  8.05415627  8.64819277
   6.32304179  8.03500865  8.64819277
  10.23495087  8.01586103  8.64819277
   2.39743074  5.24957254  2.54742733
   6.30933982  5.23042492  2.54742733
  10.22124890  5.21127730  2.54742733
   2.42483468 10.85873999  2.54742733
   6.33674376 10.83959237  2.54742733
  10.24865284 10.82044475  2.54742733
   2.39743074  5.24957254  8.14523738
   6.30933982  5.23042492  8.14523738
  10.22124890  5.21127730  8.14523738
   2.42483468 10.85873999  8.14523738
   6.33674376 10.83959237  8.14523738
  10.24865284 10.82044475  8.14523738
   2.39183311  4.11328754  4.18453195
   6.30374219  4.09413992  4.18453195
  10.21565127  4.07499230  4.18453195
   2.41923705  9.72245499  4.18453195
   6.33114613  9.70330737  4.18453195
  10.24305521  9.68415975  4.18453195
   2.39183311  4.11328754  9.78234200
   6.30374219  4.09413992  9.78234200
  10.21565127  4.07499230  9.78234200
   2.41923705  9.72245499  9.78234200
   6.33114613  9.70330737  9.78234200
  10.24305521  9.68415975  9.78234200
   2.37813114  1.30870381  1.41327810
   6.29004022  1.28955619  1.41327810
  10.20194930  1.27040857  1.41327810
   2.40553508  6.91787126  1.41327810
   6.31744416  6.89872364  1.41327810
  10.22935324  6.87957602  1.41327810
   2.37813114  1.30870381  7.01108815
   6.29004022  1.28955619  7.01108815
  10.20194930  1.27040857  7.01108815
   2.40553508  6.91787126  7.01108815
   6.31744416  6.89872364  7.01108815
  10.22935324  6.87957602  7.01108815
   0.43600420  4.14008917  1.34677124
   4.34796214  4.13094143  1.34677124
   8.25987122  4.11179381  1.34677124
   0.46345700  9.75925650  1.34677124
   4.37536608  9.74010888  1.34677124
   8.28727516  9.72096126  1.34677124
   0.43605306  4.15008905  6.94458129
   4.34796214  4.13094143  6.94458129
   8.25987122  4.11179381  6.94458129
   0.46345700  9.75925650  6.94458129
   4.37536608  9.74010888  6.94458129
   8.28727516  9.72096126  6.94458129
   0.42235109  1.34550533  4.25103881
   4.33426017  1.32635771  4.25103881
   8.24616925  1.30721009  4.25103881
   0.44975503  6.95467278  4.25103881
   4.36166411  6.93552516  4.25103881
   8.27357319  6.91637754  4.25103881
   0.42235109  1.34550533  9.84884886
   4.33426017  1.32635771  9.84884886
   8.24616925  1.30721009  9.84884886
   0.44975503  6.95467278  9.84884886
   4.36166411  6.93552516  9.84884886
   8.27357319  6.91637754  9.84884886
   2.37239010  0.12585042  5.37428530
   6.28429918  0.10670280  5.37428530
  10.19620826  0.08755518  5.37428530
   2.39979404  5.73501787  5.37428530
   6.31170312  5.71587025  5.37428530
  10.22361220  5.69672263  5.37428530
   2.37239010  0.12585042 10.97209535
   6.28429918  0.10670280 10.97209535
  10.19620826  0.08755518 10.97209535
   2.39979404  5.73501787 10.97209535
   6.31170312  5.71587025 10.97209535
  10.22361220  5.69672263 10.97209535
   2.38609207  2.93043414  0.22352475
   6.29800115  2.91128652  0.22352475
  10.20991023  2.89213890  0.22352475
   2.41349601  8.53960159  0.22352475
   6.32540509  8.52045397  0.22352475
  10.23731417  8.50130635  0.22352475
   2.38609207  2.93043414  5.82133480
   6.29800115  2.91128652  5.82133480
  10.20991023  2.89213890  5.82133480
   2.41349601  8.53960159  5.82133480
   6.32540509  8.52045397  5.82133480
  10.23731417  8.50130635  5.82133480
 


--------------------------------------------------------------------------------------------------------


 k-point  1 :   0.0000 0.0000 0.0000  plane waves:   55469
 k-point  2 :   0.3333 0.0000 0.0000  plane waves:   55443
 k-point  3 :   0.0000 0.3333 0.0000  plane waves:   55474
 k-point  4 :   0.3333 0.3333 0.0000  plane waves:   55456
 k-point  5 :  -0.3333 0.3333 0.0000  plane waves:   55456
 k-point  6 :   0.0000 0.0000 0.3333  plane waves:   55522
 k-point  7 :   0.3333 0.0000 0.3333  plane waves:   55468
 k-point  8 :  -0.3333 0.0000 0.3333  plane waves:   55468
 k-point  9 :   0.0000 0.3333 0.3333  plane waves:   55433
 k-point 10 :   0.3333 0.3333 0.3333  plane waves:   55444
 k-point 11 :  -0.3333 0.3333 0.3333  plane waves:   55444
 k-point 12 :  -0.0000-0.3333 0.3333  plane waves:   55433
 k-point 13 :   0.3333-0.3333 0.3333  plane waves:   55444
 k-point 14 :  -0.3333-0.3333 0.3333  plane waves:   55444

 maximum and minimum number of plane-waves per node :      9314     9185

 maximum number of plane-waves:     55522
 maximum index in each direction: 
   IXMAX=   24   IYMAX=   23   IZMAX=   23
   IXMIN=  -24   IYMIN=  -23   IZMIN=  -23


 parallel 3D FFT for wavefunctions:
    minimum data exchange during FFTs selected (reduces bandwidth)
 parallel 3D FFT for charge:
    minimum data exchange during FFTs selected (reduces bandwidth)


 total amount of memory used by VASP MPI-rank0   801761. kBytes
=======================================================================

   base      :      30000. kBytes
   nonl-proj :      92491. kBytes
   fftplans  :      50318. kBytes
   grid      :      44712. kBytes
   one-center:        622. kBytes
   wavefun   :     583618. kBytes
 
     INWAV:  cpu time    0.0001: real time    0.0003
 Broyden mixing: mesh for mixing (old mesh)
   NGX = 49   NGY = 47   NGZ = 47
  (NGX  =196   NGY  =192   NGZ  =192)
  gives a total of 108241 points

 initial charge density was supplied:
 number of electron     768.0000015 magnetization      96.0009074
 keeping initial charge density in first step


--------------------------------------------------------------------------------------------------------


 Maximum index for augmentation-charges         7854 (set IRDMAX)


--------------------------------------------------------------------------------------------------------


 First call to EWALD:  gamma=   0.156
 Maximum number of real-space cells 3x 3x 3
 Maximum number of reciprocal cells 3x 3x 3

    FEWALD:  cpu time    0.1149: real time    0.1321


--------------------------------------- Iteration      1(   1)  ---------------------------------------


    POTLOK:  cpu time    0.4923: real time    0.5064
    SETDIJ:  cpu time    1.4489: real time    1.4735
     EDDAV:  cpu time  219.0704: real time  221.0485
       DOS:  cpu time    0.0049: real time    0.0049
    --------------------------------------------
      LOOP:  cpu time  221.0165: real time  223.0334

 eigenvalue-minimisations  : 32400
 total energy-change (2. order) : 0.1004338E+05  (-0.4138226E+05)
 number of electron     768.0000015 magnetization      96.0009074
 augmentation part      768.0000015 magnetization      96.0009074

 Free energy of the ion-electron system (eV)
  ---------------------------------------------------
  alpha Z        PSCENC =      1915.67052055
  Ewald energy   TEWEN  =    -48532.00123015
  -Hartree energ DENC   =    -28983.53758740
  -exchange      EXHF   =         0.00000000
  -V(xc)+E(xc)   XCENC  =      3297.26700553
  PAW double counting   =     81710.32686745   -84426.12035439
  entropy T*S    EENTRO =        -0.01827686
  eigenvalues    EBANDS =      -670.17219585
  atomic energy  EATOM  =     85731.96378919
  Solvation  Ediel_sol  =         0.00000000
  ---------------------------------------------------
  free energy    TOTEN  =     10043.37853807 eV

  energy without entropy =    10043.39681493  energy(sigma->0) =    10043.38767650


--------------------------------------------------------------------------------------------------------




--------------------------------------- Iteration      1(   2)  ---------------------------------------


     EDDAV:  cpu time  211.4992: real time  213.6210
       DOS:  cpu time    0.0053: real time    0.0053
    --------------------------------------------
      LOOP:  cpu time  211.5045: real time  213.6262

 eigenvalue-minimisations  : 30912
 total energy-change (2. order) :-0.9006327E+04  (-0.8363427E+04)
 number of electron     768.0000015 magnetization      96.0009074
 augmentation part      768.0000015 magnetization      96.0009074

 Free energy of the ion-electron system (eV)
  ---------------------------------------------------
  alpha Z        PSCENC =      1915.67052055
  Ewald energy   TEWEN  =    -48532.00123015
  -Hartree energ DENC   =    -28983.53758740
  -exchange      EXHF   =         0.00000000
  -V(xc)+E(xc)   XCENC  =      3297.26700553
  PAW double counting   =     81710.32686745   -84426.12035439
  entropy T*S    EENTRO =        -0.05230229
  eigenvalues    EBANDS =     -9676.46505635
  atomic energy  EATOM  =     85731.96378919
  Solvation  Ediel_sol  =         0.00000000
  ---------------------------------------------------
  free energy    TOTEN  =      1037.05165214 eV

  energy without entropy =     1037.10395443  energy(sigma->0) =     1037.07780329


--------------------------------------------------------------------------------------------------------




--------------------------------------- Iteration      1(   3)  ---------------------------------------


     EDDAV:  cpu time  231.9587: real time  234.3488
       DOS:  cpu time    0.0021: real time    0.0021
    --------------------------------------------
      LOOP:  cpu time  231.9608: real time  234.3508

 eigenvalue-minimisations  : 34696
 total energy-change (2. order) :-0.1436808E+04  (-0.1296147E+04)
 number of electron     768.0000015 magnetization      96.0009074
 augmentation part      768.0000015 magnetization      96.0009074

 Free energy of the ion-electron system (eV)
  ---------------------------------------------------
  alpha Z        PSCENC =      1915.67052055
  Ewald energy   TEWEN  =    -48532.00123015
  -Hartree energ DENC   =    -28983.53758740
  -exchange      EXHF   =         0.00000000
  -V(xc)+E(xc)   XCENC  =      3297.26700553
  PAW double counting   =     81710.32686745   -84426.12035439
  entropy T*S    EENTRO =        -0.00000000
  eigenvalues    EBANDS =    -11113.32513616
  atomic energy  EATOM  =     85731.96378919
  Solvation  Ediel_sol  =         0.00000000
  ---------------------------------------------------
  free energy    TOTEN  =      -399.75612538 eV

  energy without entropy =     -399.75612538  energy(sigma->0) =     -399.75612538


--------------------------------------------------------------------------------------------------------




--------------------------------------- Iteration      1(   4)  ---------------------------------------


     EDDAV:  cpu time  262.7670: real time  265.0025
       DOS:  cpu time    0.0020: real time    0.0020
    --------------------------------------------
      LOOP:  cpu time  262.7690: real time  265.0045

 eigenvalue-minimisations  : 41064
 total energy-change (2. order) :-0.1906046E+03  (-0.1884491E+03)
 number of electron     768.0000015 magnetization      96.0009074
 augmentation part      768.0000015 magnetization      96.0009074

 Free energy of the ion-electron system (eV)
  ---------------------------------------------------
  alpha Z        PSCENC =      1915.67052055
  Ewald energy   TEWEN  =    -48532.00123015
  -Hartree energ DENC   =    -28983.53758740
  -exchange      EXHF   =         0.00000000
  -V(xc)+E(xc)   XCENC  =      3297.26700553
  PAW double counting   =     81710.32686745   -84426.12035439
  entropy T*S    EENTRO =        -0.00000000
  eigenvalues    EBANDS =    -11303.92976490
  atomic energy  EATOM  =     85731.96378919
  Solvation  Ediel_sol  =         0.00000000
  ---------------------------------------------------
  free energy    TOTEN  =      -590.36075412 eV

  energy without entropy =     -590.36075412  energy(sigma->0) =     -590.36075412


--------------------------------------------------------------------------------------------------------




--------------------------------------- Iteration      1(   5)  ---------------------------------------


     EDDAV:  cpu time  333.6251: real time  336.7848
       DOS:  cpu time    0.0020: real time    0.0020
    CHARGE:  cpu time    5.6106: real time    5.6415
    MIXING:  cpu time    0.0229: real time    0.0229
    --------------------------------------------
      LOOP:  cpu time  339.2607: real time  342.4513

 eigenvalue-minimisations  : 54344
 total energy-change (2. order) :-0.2508201E+02  (-0.2484484E+02)
 number of electron     768.0000015 magnetization      96.0005841
 augmentation part      246.8420420 magnetization      62.9165565

 Broyden mixing:
  rms(total) = 0.28013E+00    rms(broyden)= 0.27998E+00
  rms(prec ) = 0.28438E+00
  weight for this iteration     100.00

 Free energy of the ion-electron system (eV)
  ---------------------------------------------------
  alpha Z        PSCENC =      1915.67052055
  Ewald energy   TEWEN  =    -48532.00123015
  -Hartree energ DENC   =    -28983.53758740
  -exchange      EXHF   =         0.00000000
  -V(xc)+E(xc)   XCENC  =      3297.26700553
  PAW double counting   =     81710.32686745   -84426.12035439
  entropy T*S    EENTRO =        -0.00000000
  eigenvalues    EBANDS =    -11329.01177386
  atomic energy  EATOM  =     85731.96378919
  Solvation  Ediel_sol  =         0.00000000
  ---------------------------------------------------
  free energy    TOTEN  =      -615.44276308 eV

  energy without entropy =     -615.44276308  energy(sigma->0) =     -615.44276308


--------------------------------------------------------------------------------------------------------




--------------------------------------- Iteration      1(   6)  ---------------------------------------


    POTLOK:  cpu time    0.4861: real time    0.4883
    SETDIJ:  cpu time    1.3561: real time    1.4626
     EDDAV:  cpu time  269.0342: real time  271.2858
       DOS:  cpu time    0.0022: real time    0.0022
    CHARGE:  cpu time    5.5536: real time    5.6480
    MIXING:  cpu time    0.0211: real time    0.5099
    --------------------------------------------
      LOOP:  cpu time  276.4534: real time  279.3969

 eigenvalue-minimisations  : 42336
 total energy-change (2. order) :-0.9440206E+00  (-0.9724114E+00)
 number of electron     768.0000015 magnetization      96.0004369
 augmentation part      245.7276220 magnetization      63.0582875

 Broyden mixing:
  rms(total) = 0.12072E+00    rms(broyden)= 0.12058E+00
  rms(prec ) = 0.12219E+00
  weight for this iteration     100.00

 eigenvalues of (default mixing * dielectric matrix)
  average eigenvalue GAMMA=   0.6669
  0.6669

 Free energy of the ion-electron system (eV)
  ---------------------------------------------------
  alpha Z        PSCENC =      1915.67052055
  Ewald energy   TEWEN  =    -48532.00123015
  -Hartree energ DENC   =    -28977.50128315
  -exchange      EXHF   =         0.00000000
  -V(xc)+E(xc)   XCENC  =      3296.39173548
  PAW double counting   =     81548.80832581   -84260.73206970
  entropy T*S    EENTRO =        -0.00000000
  eigenvalues    EBANDS =    -11338.98657174
  atomic energy  EATOM  =     85731.96378919
  Solvation  Ediel_sol  =         0.00000000
  ---------------------------------------------------
  free energy    TOTEN  =      -616.38678371 eV

  energy without entropy =     -616.38678371  energy(sigma->0) =     -616.38678371


--------------------------------------------------------------------------------------------------------




--------------------------------------- Iteration      1(   7)  ---------------------------------------


    POTLOK:  cpu time    0.4863: real time    0.4929
    SETDIJ:  cpu time    1.4714: real time    1.4888
     EDDAV:  cpu time  306.0906: real time  309.0060
       DOS:  cpu time    0.0021: real time    0.0021
    CHARGE:  cpu time    5.6140: real time    5.6384
    MIXING:  cpu time    0.0259: real time    0.0259
    --------------------------------------------
      LOOP:  cpu time  313.6903: real time  316.6540

 eigenvalue-minimisations  : 49472
 total energy-change (2. order) :-0.4861030E-01  (-0.4831419E-01)
 number of electron     768.0000015 magnetization      96.0003799
 augmentation part      245.5269989 magnetization      63.0165938

 Broyden mixing:
  rms(total) = 0.84205E-01    rms(broyden)= 0.84149E-01
  rms(prec ) = 0.85857E-01
  weight for this iteration     100.00

 eigenvalues of (default mixing * dielectric matrix)
  average eigenvalue GAMMA=   0.5801
  0.5801  0.5801

 Free energy of the ion-electron system (eV)
  ---------------------------------------------------
  alpha Z        PSCENC =      1915.67052055
  Ewald energy   TEWEN  =    -48532.00123015
  -Hartree energ DENC   =    -28979.43478194
  -exchange      EXHF   =         0.00000000
  -V(xc)+E(xc)   XCENC  =      3296.64426486
  PAW double counting   =     81588.91681486   -84301.76145659
  entropy T*S    EENTRO =        -0.00000000
  eigenvalues    EBANDS =    -11336.43331481
  atomic energy  EATOM  =     85731.96378919
  Solvation  Ediel_sol  =         0.00000000
  ---------------------------------------------------
  free energy    TOTEN  =      -616.43539402 eV

  energy without entropy =     -616.43539402  energy(sigma->0) =     -616.43539402


--------------------------------------------------------------------------------------------------------




--------------------------------------- Iteration      1(   8)  ---------------------------------------


    POTLOK:  cpu time    0.4841: real time    0.4864
    SETDIJ:  cpu time    1.4631: real time    1.4636
     EDDAV:  cpu time  297.1866: real time  299.6564
       DOS:  cpu time    0.0022: real time    0.0022
    CHARGE:  cpu time    5.5218: real time    5.5884
    MIXING:  cpu time    0.0231: real time    0.0231
    --------------------------------------------
      LOOP:  cpu time  304.6809: real time  307.2200

 eigenvalue-minimisations  : 47336
 total energy-change (2. order) :-0.1867081E-03  (-0.1769306E-02)
 number of electron     768.0000015 magnetization      96.0003536
 augmentation part      245.4887347 magnetization      63.0143407

 Broyden mixing:
  rms(total) = 0.73081E-01    rms(broyden)= 0.73076E-01
  rms(prec ) = 0.74622E-01
  weight for this iteration     100.00

 eigenvalues of (default mixing * dielectric matrix)
  average eigenvalue GAMMA=   0.5423
  0.6160  0.6160  0.3951

 Free energy of the ion-electron system (eV)
  ---------------------------------------------------
  alpha Z        PSCENC =      1915.67052055
  Ewald energy   TEWEN  =    -48532.00123015
  -Hartree energ DENC   =    -28980.18481428
  -exchange      EXHF   =         0.00000000
  -V(xc)+E(xc)   XCENC  =      3296.74602797
  PAW double counting   =     81609.64895220   -84323.03880942
  entropy T*S    EENTRO =        -0.00000000
  eigenvalues    EBANDS =    -11335.24001679
  atomic energy  EATOM  =     85731.96378919
  Solvation  Ediel_sol  =         0.00000000
  ---------------------------------------------------
  free energy    TOTEN  =      -616.43558072 eV

  energy without entropy =     -616.43558072  energy(sigma->0) =     -616.43558072


--------------------------------------------------------------------------------------------------------




--------------------------------------- Iteration      1(   9)  ---------------------------------------


    POTLOK:  cpu time    0.4822: real time    0.4846
    SETDIJ:  cpu time    1.4554: real time    1.4561
     EDDAV:  cpu time  304.4658: real time  307.0143
       DOS:  cpu time    0.0022: real time    0.0022
    CHARGE:  cpu time    5.7013: real time    5.7054
    MIXING:  cpu time    0.0341: real time    0.0341
    --------------------------------------------
      LOOP:  cpu time  312.1409: real time  314.6967

 eigenvalue-minimisations  : 49208
 total energy-change (2. order) : 0.6464147E-03  (-0.1051575E-03)
 number of electron     768.0000015 magnetization      96.0003490
 augmentation part      245.4936936 magnetization      63.0120126

 Broyden mixing:
  rms(total) = 0.66603E-01    rms(broyden)= 0.66603E-01
  rms(prec ) = 0.67989E-01
  weight for this iteration     100.00

 eigenvalues of (default mixing * dielectric matrix)
  average eigenvalue GAMMA=   0.4553
  0.6077  0.6077  0.3028  0.3028

 Free energy of the ion-electron system (eV)
  ---------------------------------------------------
  alpha Z        PSCENC =      1915.67052055
  Ewald energy   TEWEN  =    -48532.00123015
  -Hartree energ DENC   =    -28980.38476631
  -exchange      EXHF   =         0.00000000
  -V(xc)+E(xc)   XCENC  =      3296.79226305
  PAW double counting   =     81617.21981767   -84330.83360658
  entropy T*S    EENTRO =        -0.00000000
  eigenvalues    EBANDS =    -11334.86172173
  atomic energy  EATOM  =     85731.96378919
  Solvation  Ediel_sol  =         0.00000000
  ---------------------------------------------------
  free energy    TOTEN  =      -616.43493431 eV

  energy without entropy =     -616.43493431  energy(sigma->0) =     -616.43493431


--------------------------------------------------------------------------------------------------------




--------------------------------------- Iteration      1(  10)  ---------------------------------------


    POTLOK:  cpu time    0.4880: real time    0.4904
    SETDIJ:  cpu time    1.4644: real time    1.4665
     EDDAV:  cpu time  303.2408: real time  306.1416
       DOS:  cpu time    0.0023: real time    0.0023
    CHARGE:  cpu time    5.5996: real time    5.6728
    MIXING:  cpu time    0.0281: real time    0.0309
    --------------------------------------------
      LOOP:  cpu time  310.8232: real time  313.8046

 eigenvalue-minimisations  : 48544
 total energy-change (2. order) : 0.1057110E-03  (-0.1219097E-04)
 number of electron     768.0000015 magnetization      96.0002415
 augmentation part      245.4986719 magnetization      63.0115977

 Broyden mixing:
  rms(total) = 0.65318E-01    rms(broyden)= 0.65318E-01
  rms(prec ) = 0.66647E-01
  weight for this iteration     100.00

 eigenvalues of (default mixing * dielectric matrix)
  average eigenvalue GAMMA=   0.6470
  0.9273  0.9273  0.4878  0.4878  0.4048

 Free energy of the ion-electron system (eV)
  ---------------------------------------------------
  alpha Z        PSCENC =      1915.67052055
  Ewald energy   TEWEN  =    -48532.00123015
  -Hartree energ DENC   =    -28980.43873179
  -exchange      EXHF   =         0.00000000
  -V(xc)+E(xc)   XCENC  =      3296.80114033
  PAW double counting   =     81618.50115664   -84332.15317134
  entropy T*S    EENTRO =        -0.00000000
  eigenvalues    EBANDS =    -11334.77830204
  atomic energy  EATOM  =     85731.96378919
  Solvation  Ediel_sol  =         0.00000000
  ---------------------------------------------------
  free energy    TOTEN  =      -616.43482860 eV

  energy without entropy =     -616.43482860  energy(sigma->0) =     -616.43482860


--------------------------------------------------------------------------------------------------------




--------------------------------------- Iteration      1(  11)  ---------------------------------------


    POTLOK:  cpu time    0.4822: real time    0.4949
    SETDIJ:  cpu time    1.4585: real time    1.4714
     EDDAV:  cpu time  311.4024: real time  313.9654
       DOS:  cpu time    0.0024: real time    0.0024
    CHARGE:  cpu time    5.6107: real time    5.6164
    MIXING:  cpu time    0.0231: real time    0.0231
    --------------------------------------------
      LOOP:  cpu time  318.9793: real time  321.5736

 eigenvalue-minimisations  : 50480
 total energy-change (2. order) : 0.1678125E-02  (-0.4484346E-04)
 number of electron     768.0000015 magnetization      96.0001870
 augmentation part      245.5108154 magnetization      63.0115071

 Broyden mixing:
  rms(total) = 0.42826E-01    rms(broyden)= 0.42826E-01
  rms(prec ) = 0.43619E-01
  weight for this iteration     100.00

 eigenvalues of (default mixing * dielectric matrix)
  average eigenvalue GAMMA=   0.6623
  1.0918  1.0918  0.5378  0.5378  0.3942  0.3205

 Free energy of the ion-electron system (eV)
  ---------------------------------------------------
  alpha Z        PSCENC =      1915.67052055
  Ewald energy   TEWEN  =    -48532.00123015
  -Hartree energ DENC   =    -28981.51802629
  -exchange      EXHF   =         0.00000000
  -V(xc)+E(xc)   XCENC  =      3296.98008179
  PAW double counting   =     81649.89281886   -84364.42574247
  entropy T*S    EENTRO =        -0.00000000
  eigenvalues    EBANDS =    -11332.99536195
  atomic energy  EATOM  =     85731.96378919
  Solvation  Ediel_sol  =         0.00000000
  ---------------------------------------------------
  free energy    TOTEN  =      -616.43315047 eV

  energy without entropy =     -616.43315047  energy(sigma->0) =     -616.43315047


--------------------------------------------------------------------------------------------------------




--------------------------------------- Iteration      1(  12)  ---------------------------------------


    POTLOK:  cpu time    0.4844: real time    0.4867
    SETDIJ:  cpu time    1.4585: real time    1.4589
     EDDAV:  cpu time  275.1395: real time  277.4537
       DOS:  cpu time    0.0022: real time    0.0022
    CHARGE:  cpu time    5.5885: real time    5.7124
    MIXING:  cpu time    0.0230: real time    0.0258
    --------------------------------------------
      LOOP:  cpu time  282.6961: real time  285.1397

 eigenvalue-minimisations  : 43392
 total energy-change (2. order) : 0.4382993E-03  (-0.5894714E-04)
 number of electron     768.0000015 magnetization      96.0001345
 augmentation part      245.5243016 magnetization      63.0107484

 Broyden mixing:
  rms(total) = 0.31547E-01    rms(broyden)= 0.31546E-01
  rms(prec ) = 0.32051E-01
  weight for this iteration     100.00

 eigenvalues of (default mixing * dielectric matrix)
  average eigenvalue GAMMA=   0.7432
  1.3429  1.3429  0.6096  0.6096  0.4613  0.4613  0.3747

 Free energy of the ion-electron system (eV)
  ---------------------------------------------------
  alpha Z        PSCENC =      1915.67052055
  Ewald energy   TEWEN  =    -48532.00123015
  -Hartree energ DENC   =    -28982.10846303
  -exchange      EXHF   =         0.00000000
  -V(xc)+E(xc)   XCENC  =      3297.06495497
  PAW double counting   =     81664.95657607   -84379.88781939
  entropy T*S    EENTRO =        -0.00000000
  eigenvalues    EBANDS =    -11332.09104038
  atomic energy  EATOM  =     85731.96378919
  Solvation  Ediel_sol  =         0.00000000
  ---------------------------------------------------
  free energy    TOTEN  =      -616.43271217 eV

  energy without entropy =     -616.43271217  energy(sigma->0) =     -616.43271217


--------------------------------------------------------------------------------------------------------




--------------------------------------- Iteration      1(  13)  ---------------------------------------


    POTLOK:  cpu time    0.4833: real time    0.4890
    SETDIJ:  cpu time    1.4371: real time    1.4641
     EDDAV:  cpu time  298.6123: real time  301.4916
       DOS:  cpu time    0.0023: real time    0.0023
    CHARGE:  cpu time    5.6721: real time    5.7142
    MIXING:  cpu time    0.0427: real time    0.0427
    --------------------------------------------
      LOOP:  cpu time  306.2498: real time  309.2040

 eigenvalue-minimisations  : 47856
 total energy-change (2. order) : 0.2631490E-03  (-0.1057256E-04)
 number of electron     768.0000015 magnetization      96.0001093
 augmentation part      245.5288258 magnetization      63.0108007

 Broyden mixing:
  rms(total) = 0.21792E-01    rms(broyden)= 0.21792E-01
  rms(prec ) = 0.22090E-01
  weight for this iteration     100.00

 eigenvalues of (default mixing * dielectric matrix)
  average eigenvalue GAMMA=   0.7704
  1.5212  1.5212  0.6981  0.6981  0.4815  0.4815  0.3888  0.3730

 Free energy of the ion-electron system (eV)
  ---------------------------------------------------
  alpha Z        PSCENC =      1915.67052055
  Ewald energy   TEWEN  =    -48532.00123015
  -Hartree energ DENC   =    -28982.61922136
  -exchange      EXHF   =         0.00000000
  -V(xc)+E(xc)   XCENC  =      3297.13956659
  PAW double counting   =     81678.65567786   -84393.90411631
  entropy T*S    EENTRO =        -0.00000000
  eigenvalues    EBANDS =    -11331.33743539
  atomic energy  EATOM  =     85731.96378919
  Solvation  Ediel_sol  =         0.00000000
  ---------------------------------------------------
  free energy    TOTEN  =      -616.43244902 eV

  energy without entropy =     -616.43244902  energy(sigma->0) =     -616.43244902


--------------------------------------------------------------------------------------------------------




--------------------------------------- Iteration      1(  14)  ---------------------------------------


    POTLOK:  cpu time    0.4849: real time    0.4875
    SETDIJ:  cpu time    1.4950: real time    1.4958
     EDDAV:  cpu time  278.2800: real time  281.0357
       DOS:  cpu time    0.0021: real time    0.0024
    CHARGE:  cpu time    5.6658: real time    5.7345
    MIXING:  cpu time    0.0395: real time    0.0431
    --------------------------------------------
      LOOP:  cpu time  285.9674: real time  288.7991

 eigenvalue-minimisations  : 44096
 total energy-change (2. order) : 0.5869282E-04  (-0.1049600E-04)
 number of electron     768.0000015 magnetization      96.0000625
 augmentation part      245.5342492 magnetization      63.0101718

 Broyden mixing:
  rms(total) = 0.17456E-01    rms(broyden)= 0.17456E-01
  rms(prec ) = 0.17658E-01
  weight for this iteration     100.00

 eigenvalues of (default mixing * dielectric matrix)
  average eigenvalue GAMMA=   0.8901
  1.9880  1.9880  0.8511  0.8511  0.5523  0.5523  0.4351  0.4351  0.3578

 Free energy of the ion-electron system (eV)
  ---------------------------------------------------
  alpha Z        PSCENC =      1915.67052055
  Ewald energy   TEWEN  =    -48532.00123015
  -Hartree energ DENC   =    -28982.84986644
  -exchange      EXHF   =         0.00000000
  -V(xc)+E(xc)   XCENC  =      3297.16960474
  PAW double counting   =     81684.62932785   -84399.98692964
  entropy T*S    EENTRO =        -0.00000000
  eigenvalues    EBANDS =    -11331.02760643
  atomic energy  EATOM  =     85731.96378919
  Solvation  Ediel_sol  =         0.00000000
  ---------------------------------------------------
  free energy    TOTEN  =      -616.43239033 eV

  energy without entropy =     -616.43239033  energy(sigma->0) =     -616.43239033


--------------------------------------------------------------------------------------------------------




--------------------------------------- Iteration      1(  15)  ---------------------------------------


    POTLOK:  cpu time    0.4863: real time    0.4966
    SETDIJ:  cpu time    1.5054: real time    1.5122
     EDDAV:  cpu time  236.0176: real time  238.0874
       DOS:  cpu time    0.0023: real time    0.0024
    CHARGE:  cpu time    5.7270: real time    5.7409
    MIXING:  cpu time    0.0376: real time    0.0417
    --------------------------------------------
      LOOP:  cpu time  243.7761: real time  245.8811

 eigenvalue-minimisations  : 35792
 total energy-change (2. order) : 0.6836663E-04  (-0.2195076E-05)
 number of electron     768.0000015 magnetization      96.0000114
 augmentation part      245.5357673 magnetization      63.0102498

 Broyden mixing:
  rms(total) = 0.99249E-02    rms(broyden)= 0.99239E-02
  rms(prec ) = 0.10035E-01
  weight for this iteration     100.00

 eigenvalues of (default mixing * dielectric matrix)
  average eigenvalue GAMMA=   1.0045
  2.4707  2.4707  0.9896  0.9896  0.6490  0.6490  0.5066  0.5066  0.3649  0.4485

 Free energy of the ion-electron system (eV)
  ---------------------------------------------------
  alpha Z        PSCENC =      1915.67052055
  Ewald energy   TEWEN  =    -48532.00123015
  -Hartree energ DENC   =    -28983.22469581
  -exchange      EXHF   =         0.00000000
  -V(xc)+E(xc)   XCENC  =      3297.21513442
  PAW double counting   =     81695.04478746   -84410.53179049
  entropy T*S    EENTRO =        -0.00000000
  eigenvalues    EBANDS =    -11330.56883714
  atomic energy  EATOM  =     85731.96378919
  Solvation  Ediel_sol  =         0.00000000
  ---------------------------------------------------
  free energy    TOTEN  =      -616.43232197 eV

  energy without entropy =     -616.43232197  energy(sigma->0) =     -616.43232197


--------------------------------------------------------------------------------------------------------




--------------------------------------- Iteration      1(  16)  ---------------------------------------


    POTLOK:  cpu time    0.4831: real time    0.4932
    SETDIJ:  cpu time    1.4009: real time    1.4866
     EDDAV:  cpu time  270.5570: real time  272.8374
       DOS:  cpu time    0.0019: real time    0.0019
    CHARGE:  cpu time    5.6608: real time    5.6825
    MIXING:  cpu time    0.0374: real time    0.0424
    --------------------------------------------
      LOOP:  cpu time  278.1411: real time  280.5440

 eigenvalue-minimisations  : 42368
 total energy-change (2. order) : 0.3954236E-04  (-0.9686265E-05)
 number of electron     768.0000015 magnetization      96.0000070
 augmentation part      245.5411327 magnetization      63.0102747

 Broyden mixing:
  rms(total) = 0.21738E-02    rms(broyden)= 0.21691E-02
  rms(prec ) = 0.22088E-02
  weight for this iteration     100.00

 eigenvalues of (default mixing * dielectric matrix)
  average eigenvalue GAMMA=   0.9547
  2.4170  2.4170  1.0319  1.0319  0.7023  0.7023  0.4952  0.4952  0.4622  0.4136
  0.3332

 Free energy of the ion-electron system (eV)
  ---------------------------------------------------
  alpha Z        PSCENC =      1915.67052055
  Ewald energy   TEWEN  =    -48532.00123015
  -Hartree energ DENC   =    -28983.67767611
  -exchange      EXHF   =         0.00000000
  -V(xc)+E(xc)   XCENC  =      3297.27558829
  PAW double counting   =     81707.54131949   -84423.26593992
  entropy T*S    EENTRO =        -0.00000000
  eigenvalues    EBANDS =    -11329.93865377
  atomic energy  EATOM  =     85731.96378919
  Solvation  Ediel_sol  =         0.00000000
  ---------------------------------------------------
  free energy    TOTEN  =      -616.43228242 eV

  energy without entropy =     -616.43228242  energy(sigma->0) =     -616.43228242


--------------------------------------------------------------------------------------------------------




--------------------------------------- Iteration      1(  17)  ---------------------------------------


    POTLOK:  cpu time    0.4845: real time    0.4850
    SETDIJ:  cpu time    1.5962: real time    1.5966
     EDDAV:  cpu time  272.3007: real time  274.7250
       DOS:  cpu time    0.0023: real time    0.0023
    CHARGE:  cpu time    5.7301: real time    5.7520
    MIXING:  cpu time    0.0419: real time    0.0419
    --------------------------------------------
      LOOP:  cpu time  280.1557: real time  282.6028

 eigenvalue-minimisations  : 43168
 total energy-change (2. order) :-0.5694281E-05  (-0.4261818E-05)
 number of electron     768.0000015 magnetization      96.0000064
 augmentation part      245.5435299 magnetization      63.0103959

 Broyden mixing:
  rms(total) = 0.22843E-02    rms(broyden)= 0.22799E-02
  rms(prec ) = 0.23503E-02
  weight for this iteration     100.00

 eigenvalues of (default mixing * dielectric matrix)
  average eigenvalue GAMMA=   0.9063
  2.4319  2.4319  1.0397  1.0397  0.7079  0.7079  0.4942  0.4942  0.4452  0.3823
  0.3503  0.3503

 Free energy of the ion-electron system (eV)
  ---------------------------------------------------
  alpha Z        PSCENC =      1915.67052055
  Ewald energy   TEWEN  =    -48532.00123015
  -Hartree energ DENC   =    -28983.71287478
  -exchange      EXHF   =         0.00000000
  -V(xc)+E(xc)   XCENC  =      3297.28066969
  PAW double counting   =     81708.86258020   -84424.62380349
  entropy T*S    EENTRO =        -0.00000000
  eigenvalues    EBANDS =    -11329.87193932
  atomic energy  EATOM  =     85731.96378919
  Solvation  Ediel_sol  =         0.00000000
  ---------------------------------------------------
  free energy    TOTEN  =      -616.43228812 eV

  energy without entropy =     -616.43228812  energy(sigma->0) =     -616.43228812


--------------------------------------------------------------------------------------------------------




--------------------------------------- Iteration      1(  18)  ---------------------------------------


    POTLOK:  cpu time    0.4830: real time    0.4836
    SETDIJ:  cpu time    1.4861: real time    1.4866
     EDDAV:  cpu time  187.0882: real time  188.8592
       DOS:  cpu time    0.0019: real time    0.0019
    --------------------------------------------
      LOOP:  cpu time  189.0591: real time  190.8312

 eigenvalue-minimisations  : 26168
 total energy-change (2. order) :-0.3680325E-06  (-0.1174332E-06)
 number of electron     768.0000015 magnetization      96.0000064
 augmentation part      245.5435299 magnetization      63.0103959

 Free energy of the ion-electron system (eV)
  ---------------------------------------------------
  alpha Z        PSCENC =      1915.67052055
  Ewald energy   TEWEN  =    -48532.00123015
  -Hartree energ DENC   =    -28983.70819883
  -exchange      EXHF   =         0.00000000
  -V(xc)+E(xc)   XCENC  =      3297.28018426
  PAW double counting   =     81709.01145866   -84424.77443483
  entropy T*S    EENTRO =        -0.00000000
  eigenvalues    EBANDS =    -11329.87437734
  atomic energy  EATOM  =     85731.96378919
  Solvation  Ediel_sol  =         0.00000000
  ---------------------------------------------------
  free energy    TOTEN  =      -616.43228849 eV

  energy without entropy =     -616.43228849  energy(sigma->0) =     -616.43228849


--------------------------------------------------------------------------------------------------------




 average (electrostatic) potential at core
  the test charge radii are     0.7079  0.7215  0.9698  0.9500
  (the norm of the test charge is              1.0000)
       1 -59.3897       2 -59.3903       3 -59.3900       4 -59.3902       5 -59.3902
       6 -59.3900       7 -59.3899       8 -59.3900       9 -59.3898      10 -59.3901
      11 -59.3899      12 -59.3903      13 -59.3834      14 -59.3889      15 -59.3887
      16 -59.3973      17 -59.3910      18 -59.3914      19 -59.3887      20 -59.3896
      21 -59.3896      22 -59.3913      23 -59.3905      24 -59.3905      25 -59.5887
      26 -59.5925      27 -59.5893      28 -59.5939      29 -59.5921      30 -59.5940
      31 -59.5918      32 -59.5919      33 -59.5925      34 -59.5933      35 -59.5931
      36 -59.5932      37 -59.5975      38 -59.5920      39 -59.5974      40 -59.5918
      41 -59.5924      42 -59.5905      43 -59.5931      44 -59.5923      45 -59.5928
      46 -59.5920      47 -59.5914      48 -59.5915      49 -70.1771      50 -70.1770
      51 -70.1771      52 -70.1770      53 -70.1770      54 -70.1771      55 -70.1771
      56 -70.1770      57 -70.1771      58 -70.1770      59 -70.1770      60 -70.1770
      61 -70.1728      62 -70.1768      63 -70.1728      64 -70.1811      65 -70.1772
      66 -70.1811      67 -70.1764      68 -70.1767      69 -70.1764      70 -70.1777
      71 -70.1773      72 -70.1777      73 -86.0046      74 -86.0040      75 -86.0040
      76 -86.0042      77 -86.0041      78 -86.0041      79 -86.0041      80 -86.0041
      81 -86.0041      82 -86.0041      83 -86.0041      84 -86.0041      85 -86.0023
      86 -86.0036      87 -86.0037      88 -86.0060      89 -86.0045      90 -86.0046
      91 -86.0012      92 -86.0032      93 -86.0032      94 -86.0071      95 -86.0049
      96 -86.0049      97 -79.0580      98 -79.0582      99 -79.0579     100 -79.0590
     101 -79.0587     102 -79.0589     103 -79.0571     104 -79.0581     105 -79.0571
     106 -79.0615     107 -79.0587     108 -79.0615     109 -79.0548     110 -79.0583
     111 -79.0548     112 -79.0596     113 -79.0586     114 -79.0596     115 -79.0583
     116 -79.0583     117 -79.0582     118 -79.0588     119 -79.0586     120 -79.0589
 
 
 
 E-fermi :   4.4051     XC(G=0): -10.1824     alpha+bet :-12.6708


 spin component 1

 k-point     1 :       0.0000    0.0000    0.0000
  band No.  band energies     occupation 
      1     -51.4821      1.00000
      2     -51.4821      1.00000
      3     -51.4820      1.00000
      4     -51.4820      1.00000
      5     -51.4820      1.00000
      6     -51.4820      1.00000
      7     -51.4671      1.00000
      8     -51.4670      1.00000
      9     -51.4664      1.00000
     10     -51.4664      1.00000
     11     -51.4664      1.00000
     12     -51.4663      1.00000
     13     -51.4663      1.00000
     14     -51.4663      1.00000
     15     -51.4663      1.00000
     16     -51.4663      1.00000
     17     -51.4649      1.00000
     18     -51.4649      1.00000
     19     -51.4509      1.00000
     20     -51.4508      1.00000
     21     -51.4508      1.00000
     22     -51.4508      1.00000
     23     -51.4500      1.00000
     24     -51.4500      1.00000
     25     -50.2029      1.00000
     26     -50.2025      1.00000
     27     -50.2016      1.00000
     28     -50.2015      1.00000
     29     -50.2012      1.00000
     30     -50.2008      1.00000
     31     -50.1999      1.00000
     32     -50.1995      1.00000
     33     -50.1989      1.00000
     34     -50.1988      1.00000
     35     -50.1988      1.00000
     36     -50.1988      1.00000
     37     -50.1986      1.00000
     38     -50.1984      1.00000
     39     -50.1982      1.00000
     40     -50.1981      1.00000
     41     -50.1978      1.00000
     42     -50.1973      1.00000
     43     -50.1961      1.00000
     44     -50.1961      1.00000
     45     -50.1958      1.00000
     46     -50.1954      1.00000
     47     -50.1949      1.00000
     48     -50.1944      1.00000
     49     -50.0069      1.00000
     50     -50.0068      1.00000
     51     -50.0068      1.00000
     52     -50.0067      1.00000
     53     -50.0067      1.00000
     54     -50.0067      1.00000
     55     -49.9913      1.00000
     56     -49.9913      1.00000
     57     -49.9906      1.00000
     58     -49.9906      1.00000
     59     -49.9906      1.00000
     60     -49.9905      1.00000
     61     -49.9905      1.00000
     62     -49.9905      1.00000
     63     -49.9905      1.00000
     64     -49.9905      1.00000
     65     -49.9889      1.00000
     66     -49.9888      1.00000
     67     -49.9741      1.00000
     68     -49.9740      1.00000
     69     -49.9740      1.00000
     70     -49.9740      1.00000
     71     -49.9731      1.00000
     72     -49.9731      1.00000
     73     -40.5238      1.00000
     74     -40.5227      1.00000
     75     -40.5217      1.00000
     76     -40.5204      1.00000
     77     -40.5203      1.00000
     78     -40.5200      1.00000
     79     -40.5150      1.00000
     80     -40.5137      1.00000
     81     -40.5137      1.00000
     82     -40.5132      1.00000
     83     -40.5128      1.00000
     84     -40.5123      1.00000
     85     -40.5121      1.00000
     86     -40.5120      1.00000
     87     -40.5118      1.00000
     88     -40.5114      1.00000
     89     -40.5114      1.00000
     90     -40.5109      1.00000
     91     -40.5040      1.00000
     92     -40.5038      1.00000
     93     -40.5037      1.00000
     94     -40.5034      1.00000
     95     -40.5034      1.00000
     96     -40.5031      1.00000
     97     -40.3112      1.00000
     98     -40.3055      1.00000
     99     -40.3054      1.00000
    100     -40.3051      1.00000
    101     -40.3048      1.00000
    102     -40.3045      1.00000
    103     -40.3043      1.00000
    104     -40.3042      1.00000
    105     -40.3042      1.00000
    106     -40.3041      1.00000
    107     -40.3040      1.00000
    108     -40.3039      1.00000
    109     -40.3038      1.00000
    110     -40.3038      1.00000
    111     -40.3037      1.00000
    112     -40.3037      1.00000
    113     -40.3036      1.00000
    114     -40.3035      1.00000
    115     -40.3035      1.00000
    116     -40.3030      1.00000
    117     -40.3028      1.00000
    118     -40.3022      1.00000
    119     -40.3021      1.00000
    120     -40.2971      1.00000
    121     -13.5425      1.00000
    122     -13.5425      1.00000
    123     -13.5120      1.00000
    124     -13.5120      1.00000
    125     -13.5117      1.00000
    126     -13.4890      1.00000
    127     -13.3744      1.00000
    128     -13.3744      1.00000
    129     -13.3744      1.00000
    130     -13.3743      1.00000
    131     -13.3731      1.00000
    132     -13.3730      1.00000
    133     -13.3730      1.00000
    134     -13.3730      1.00000
    135     -13.3405      1.00000
    136     -13.3405      1.00000
    137     -13.3369      1.00000
    138     -13.3368      1.00000
    139     -13.2385      1.00000
    140     -13.2385      1.00000
    141     -13.2018      1.00000
    142     -13.2018      1.00000
    143     -13.1975      1.00000
    144     -13.1650      1.00000
    145      -7.7342      1.00000
    146      -7.6693      1.00000
    147      -7.5824      1.00000
    148      -7.5821      1.00000
    149      -7.5407      1.00000
    150      -7.5401      1.00000
    151      -7.5302      1.00000
    152      -7.5300      1.00000
    153      -7.4083      1.00000
    154      -7.3742      1.00000
    155      -7.3739      1.00000
    156      -7.3517      1.00000
    157      -7.3513      1.00000
    158      -7.3513      1.00000
    159      -7.3513      1.00000
    160      -7.3432      1.00000
    161      -7.3425      1.00000
    162      -7.3425      1.00000
    163      -7.3422      1.00000
    164      -7.3146      1.00000
    165      -7.3144      1.00000
    166      -7.2338      1.00000
    167      -7.1159      1.00000
    168      -7.1157      1.00000
    169      -1.9249      1.00000
    170      -1.9144      1.00000
    171      -1.8863      1.00000
    172      -1.8445      1.00000
    173      -1.8445      1.00000
    174      -1.7992      1.00000
    175      -1.7992      1.00000
    176      -1.7913      1.00000
    177      -1.7913      1.00000
    178      -1.7912      1.00000
    179      -1.7776      1.00000
    180      -1.7776      1.00000
    181      -1.5320      1.00000
    182      -1.5319      1.00000
    183      -1.5146      1.00000
    184      -1.5143      1.00000
    185      -1.4875      1.00000
    186      -1.4874      1.00000
    187      -1.4874      1.00000
    188      -1.4871      1.00000
    189      -1.4731      1.00000
    190      -1.4730      1.00000
    191      -1.4728      1.00000
    192      -1.4727      1.00000
    193      -1.4339      1.00000
    194      -1.4338      1.00000
    195      -1.3244      1.00000
    196      -1.3243      1.00000
    197      -1.2048      1.00000
    198      -1.1834      1.00000
    199      -1.1561      1.00000
    200      -1.1560      1.00000
    201      -1.1560      1.00000
[...]
   0.353E+00 0.307E+02 -.266E+03   -.349E+00 -.321E+02 0.274E+03   -.939E-02 0.138E+01 -.824E+01   0.313E-04 -.153E-03 0.299E-03
   0.360E+00 0.307E+02 -.266E+03   -.356E+00 -.321E+02 0.274E+03   -.968E-02 0.138E+01 -.824E+01   -.194E-03 -.749E-04 0.231E-04
   0.167E+00 0.305E+02 -.266E+03   -.176E+00 -.319E+02 0.274E+03   0.900E-02 0.140E+01 -.824E+01   -.626E-04 -.181E-03 0.271E-03
   -.256E-01 0.307E+02 -.266E+03   0.367E-02 -.321E+02 0.274E+03   0.272E-01 0.138E+01 -.824E+01   0.214E-03 -.829E-04 0.100E-03
   0.156E+00 0.305E+02 -.266E+03   -.166E+00 -.319E+02 0.274E+03   0.106E-01 0.140E+01 -.824E+01   -.840E-04 -.188E-03 0.173E-03
   0.167E+00 0.305E+02 -.266E+03   -.176E+00 -.319E+02 0.274E+03   0.895E-02 0.140E+01 -.824E+01   0.356E-04 -.170E-03 0.208E-03
   0.177E+00 0.305E+02 -.266E+03   -.185E+00 -.319E+02 0.274E+03   0.714E-02 0.140E+01 -.824E+01   0.636E-04 -.278E-03 0.813E-04
   0.178E+00 0.305E+02 -.266E+03   -.185E+00 -.319E+02 0.274E+03   0.727E-02 0.140E+01 -.824E+01   -.396E-04 -.878E-04 0.625E-04
   0.167E+00 0.305E+02 -.266E+03   -.176E+00 -.319E+02 0.274E+03   0.897E-02 0.140E+01 -.824E+01   -.305E-04 -.230E-03 0.161E-03
   0.156E+00 0.305E+02 -.266E+03   -.166E+00 -.319E+02 0.274E+03   0.105E-01 0.140E+01 -.824E+01   -.123E-04 -.159E-03 0.177E-03
   -.128E+00 -.260E+02 -.149E+03   0.131E+00 0.265E+02 0.151E+03   -.261E-02 -.470E+00 -.113E+01   -.248E-04 0.581E-03 -.531E-03
   -.121E+00 -.246E+02 -.149E+03   0.124E+00 0.251E+02 0.150E+03   -.302E-02 -.543E+00 -.115E+01   -.491E-04 0.503E-04 -.484E-03
   -.122E+00 -.246E+02 -.149E+03   0.124E+00 0.251E+02 0.150E+03   -.302E-02 -.543E+00 -.115E+01   0.523E-04 0.146E-04 -.449E-03
   -.120E+00 -.244E+02 -.149E+03   0.123E+00 0.249E+02 0.150E+03   -.298E-02 -.550E+00 -.114E+01   -.702E-04 -.526E-04 -.525E-03
   -.120E+00 -.245E+02 -.149E+03   0.123E+00 0.250E+02 0.150E+03   -.322E-02 -.549E+00 -.114E+01   -.712E-05 -.445E-04 -.492E-03
   -.121E+00 -.245E+02 -.149E+03   0.123E+00 0.250E+02 0.150E+03   -.293E-02 -.549E+00 -.114E+01   0.391E-04 0.707E-04 -.406E-03
   -.121E+00 -.246E+02 -.149E+03   0.124E+00 0.251E+02 0.150E+03   -.295E-02 -.544E+00 -.114E+01   -.352E-07 0.141E-03 -.456E-03
   -.121E+00 -.245E+02 -.149E+03   0.124E+00 0.251E+02 0.150E+03   -.310E-02 -.545E+00 -.114E+01   0.765E-04 0.113E-03 -.425E-03
   -.121E+00 -.245E+02 -.149E+03   0.124E+00 0.251E+02 0.150E+03   -.293E-02 -.545E+00 -.114E+01   -.460E-04 0.763E-04 -.469E-03
   -.121E+00 -.245E+02 -.149E+03   0.123E+00 0.250E+02 0.150E+03   -.301E-02 -.549E+00 -.114E+01   -.224E-04 0.294E-04 -.432E-03
   -.121E+00 -.245E+02 -.149E+03   0.124E+00 0.250E+02 0.150E+03   -.305E-02 -.547E+00 -.114E+01   -.348E-05 0.206E-04 -.465E-03
   -.121E+00 -.245E+02 -.149E+03   0.123E+00 0.250E+02 0.150E+03   -.297E-02 -.547E+00 -.114E+01   0.292E-04 0.177E-04 -.416E-03
   -.120E+00 -.245E+02 0.149E+03   0.123E+00 0.250E+02 -.150E+03   -.304E-02 -.550E+00 0.115E+01   -.634E-05 0.844E-04 0.479E-03
   -.144E+00 -.245E+02 0.149E+03   0.146E+00 0.251E+02 -.150E+03   -.229E-02 -.546E+00 0.115E+01   0.119E-04 0.107E-03 0.454E-03
   -.975E-01 -.245E+02 0.149E+03   0.101E+00 0.251E+02 -.150E+03   -.374E-02 -.546E+00 0.115E+01   -.185E-04 0.139E-03 0.484E-03
   -.120E+00 -.245E+02 0.149E+03   0.123E+00 0.250E+02 -.150E+03   -.304E-02 -.550E+00 0.114E+01   -.123E-04 0.798E-04 0.383E-03
   -.976E-01 -.245E+02 0.149E+03   0.101E+00 0.251E+02 -.150E+03   -.377E-02 -.546E+00 0.114E+01   0.125E-04 0.585E-04 0.491E-03
   -.144E+00 -.245E+02 0.149E+03   0.146E+00 0.251E+02 -.150E+03   -.228E-02 -.546E+00 0.114E+01   -.129E-04 0.340E-04 0.449E-03
   -.120E+00 -.244E+02 0.149E+03   0.123E+00 0.250E+02 -.150E+03   -.309E-02 -.553E+00 0.114E+01   -.387E-04 0.660E-04 0.444E-03
   -.147E+00 -.245E+02 0.149E+03   0.149E+00 0.251E+02 -.150E+03   -.134E-02 -.546E+00 0.114E+01   0.764E-05 0.145E-03 0.449E-03
   -.945E-01 -.245E+02 0.149E+03   0.981E-01 0.251E+02 -.150E+03   -.465E-02 -.546E+00 0.114E+01   0.201E-04 0.141E-03 0.461E-03
   -.120E+00 -.244E+02 0.149E+03   0.123E+00 0.250E+02 -.150E+03   -.304E-02 -.553E+00 0.115E+01   -.232E-04 0.115E-03 0.474E-03
   -.947E-01 -.245E+02 0.149E+03   0.982E-01 0.251E+02 -.150E+03   -.440E-02 -.546E+00 0.115E+01   0.251E-04 0.562E-04 0.420E-03
   -.147E+00 -.245E+02 0.149E+03   0.149E+00 0.251E+02 -.150E+03   -.159E-02 -.546E+00 0.115E+01   0.245E-04 0.518E-04 0.377E-03
   -.107E+00 -.159E+02 0.821E+02   0.109E+00 0.170E+02 -.833E+02   -.232E-02 -.115E+01 0.122E+01   -.710E-04 -.195E-03 0.674E-03
   -.779E-01 -.159E+02 0.822E+02   0.829E-01 0.171E+02 -.834E+02   -.539E-02 -.114E+01 0.122E+01   0.681E-04 -.403E-05 0.588E-03
   -.477E-01 -.159E+02 0.821E+02   0.564E-01 0.170E+02 -.833E+02   -.847E-02 -.115E+01 0.122E+01   0.133E-04 -.131E-03 0.740E-03
   -.306E-01 -.160E+02 0.822E+02   0.385E-01 0.171E+02 -.835E+02   -.735E-02 -.114E+01 0.122E+01   -.114E-03 0.105E-03 0.564E-03
   -.781E-01 -.160E+02 0.822E+02   0.832E-01 0.171E+02 -.834E+02   -.539E-02 -.114E+01 0.122E+01   0.627E-04 -.810E-04 0.509E-03
   -.126E+00 -.160E+02 0.822E+02   0.128E+00 0.171E+02 -.835E+02   -.338E-02 -.114E+01 0.122E+01   0.328E-04 -.668E-05 0.536E-03
   -.178E+00 -.157E+02 0.822E+02   0.182E+00 0.169E+02 -.835E+02   -.385E-02 -.115E+01 0.121E+01   -.721E-04 -.213E-03 0.517E-03
   -.777E-01 -.159E+02 0.822E+02   0.829E-01 0.171E+02 -.834E+02   -.538E-02 -.115E+01 0.122E+01   0.363E-05 -.952E-04 0.626E-03
   0.245E-01 -.157E+02 0.822E+02   -.174E-01 0.169E+02 -.835E+02   -.697E-02 -.115E+01 0.121E+01   0.382E-04 -.205E-04 0.544E-03
   0.425E+00 -.160E+02 0.818E+02   -.397E+00 0.171E+02 -.830E+02   -.233E-01 -.114E+01 0.123E+01   -.420E-03 -.118E-03 0.731E-03
   -.781E-01 -.160E+02 0.821E+02   0.833E-01 0.171E+02 -.834E+02   -.538E-02 -.114E+01 0.122E+01   -.197E-04 -.101E-03 0.356E-03
   -.581E+00 -.160E+02 0.818E+02   0.564E+00 0.171E+02 -.830E+02   0.126E-01 -.114E+01 0.123E+01   0.382E-03 -.207E-03 0.728E-03
   -.893E+00 -.162E+02 -.817E+02   0.861E+00 0.173E+02 0.829E+02   0.344E-01 -.115E+01 -.124E+01   0.389E-03 0.265E-03 -.631E-03
   -.783E-01 -.160E+02 -.822E+02   0.833E-01 0.171E+02 0.834E+02   -.536E-02 -.114E+01 -.122E+01   0.572E-04 0.140E-03 -.561E-03
   0.735E+00 -.162E+02 -.817E+02   -.693E+00 0.173E+02 0.829E+02   -.452E-01 -.115E+01 -.124E+01   -.434E-03 0.177E-03 -.605E-03
   0.277E-02 -.157E+02 -.822E+02   0.298E-02 0.169E+02 0.834E+02   -.535E-02 -.115E+01 -.121E+01   -.235E-03 -.994E-04 -.673E-03
   -.777E-01 -.159E+02 -.822E+02   0.828E-01 0.170E+02 0.834E+02   -.541E-02 -.114E+01 -.122E+01   -.255E-05 -.113E-03 -.547E-03
   -.156E+00 -.157E+02 -.822E+02   0.161E+00 0.169E+02 0.834E+02   -.549E-02 -.115E+01 -.121E+01   0.267E-03 -.162E-03 -.648E-03
   -.106E+00 -.160E+02 -.822E+02   0.110E+00 0.172E+02 0.834E+02   -.444E-02 -.114E+01 -.122E+01   -.152E-03 0.374E-04 -.535E-03
   -.782E-01 -.160E+02 -.822E+02   0.832E-01 0.171E+02 0.834E+02   -.543E-02 -.114E+01 -.122E+01   0.225E-03 0.736E-04 -.573E-03
   -.505E-01 -.160E+02 -.822E+02   0.568E-01 0.172E+02 0.834E+02   -.624E-02 -.114E+01 -.122E+01   -.128E-03 0.129E-03 -.572E-03
   -.598E-01 -.159E+02 -.821E+02   0.669E-01 0.170E+02 0.834E+02   -.666E-02 -.115E+01 -.122E+01   -.810E-04 -.165E-03 -.524E-03
   -.778E-01 -.159E+02 -.822E+02   0.829E-01 0.171E+02 0.834E+02   -.540E-02 -.114E+01 -.122E+01   -.139E-04 -.141E-03 -.577E-03
   -.953E-01 -.159E+02 -.821E+02   0.986E-01 0.170E+02 0.834E+02   -.411E-02 -.115E+01 -.122E+01   -.435E-05 -.128E-03 -.436E-03
 -----------------------------------------------------------------------------------------------
   -.809E-01 -.183E+01 0.238E-01   -.760E-13 -.309E-12 -.256E-12   0.805E-01 0.183E+01 -.241E-01   -.269E-03 -.349E-02 0.312E-03
 
 
 POSITION                                       TOTAL-FORCE (eV/Angst)
 -----------------------------------------------------------------------------------
      0.43553      4.06770      3.99103         0.000107     -0.002535      0.000024
      4.34744      4.04855      3.99103         0.002049     -0.000231     -0.000144
      8.25935      4.02941      3.99103        -0.000274     -0.000204     -0.000138
      0.46293      9.67687      3.99103         0.000108      0.000696     -0.000161
      4.37484      9.65772      3.99103         0.002027      0.000101     -0.000120
      8.28675      9.63857      3.99103        -0.000242      0.000136     -0.000117
      0.43553      4.06770      9.58884         0.000105     -0.001782     -0.000084
      4.34744      4.04855      9.58884         0.002046     -0.000361     -0.000110
      8.25935      4.02941      9.58884        -0.000273     -0.000328     -0.000103
      0.46293      9.67687      9.58884         0.000113      0.001298     -0.000128
      4.37484      9.65772      9.58884         0.002026      0.000269     -0.000127
      8.28675      9.63857      9.58884        -0.000243      0.000300     -0.000116
      0.42183      1.26312      1.60678         0.000134      0.003854     -0.000113
      4.33373      1.24397      1.60678         0.001086     -0.000045     -0.000024
      8.24564      1.22482      1.60678         0.000691     -0.000027     -0.000028
      0.44923      6.87229      1.60678         0.000131      0.002121      0.000358
      4.36114      6.85314      1.60678         0.002934     -0.000171      0.000229
      8.27305      6.83399      1.60678        -0.001162     -0.000126      0.000223
      0.42183      1.26312      7.20459         0.000116     -0.000145      0.000504
      4.33373      1.24397      7.20459         0.001991     -0.000048      0.000238
      8.24564      1.22482      7.20459        -0.000208     -0.000020      0.000230
      0.44923      6.87229      7.20459         0.000108     -0.000256     -0.000206
      4.36114      6.85314      7.20459         0.002081     -0.000082      0.000023
      8.27305      6.83399      7.20459        -0.000302     -0.000056      0.000016
      2.38373      2.44499      3.05038        -0.002260      0.000038     -0.002017
      6.29564      2.42584      3.05038        -0.000184     -0.000070      0.000020
     10.20755      2.40669      3.05038         0.001897      0.000015     -0.002020
      2.41113      8.05416      3.05038         0.000102      0.000871      0.000535
      6.32304      8.03501      3.05038        -0.000182      0.000249     -0.000148
     10.23495      8.01586      3.05038        -0.000459      0.000883      0.000542
      2.38373      2.44499      8.64819        -0.000474     -0.000392      0.000248
      6.29564      2.42584      8.64819        -0.000185     -0.000210      0.000083
     10.20755      2.40669      8.64819         0.000107     -0.000395      0.000265
      2.41113      8.05416      8.64819         0.000374      0.000559     -0.000302
      6.32304      8.03501      8.64819        -0.000180      0.000374     -0.000184
     10.23495      8.01586      8.64819        -0.000731      0.000567     -0.000284
      2.39743      5.24957      2.54743        -0.000791     -0.002706     -0.000316
      6.30934      5.23042      2.54743        -0.000181     -0.000034     -0.000123
     10.22125      5.21128      2.54743         0.000399     -0.002718     -0.000312
      2.42483     10.85874      2.54743        -0.000194      0.001065     -0.000387
      6.33674     10.83959      2.54743        -0.000178      0.000210      0.000114
     10.24865     10.82044      2.54743        -0.000162      0.001050     -0.000386
      2.39743      5.24957      8.14524         0.000033     -0.000284     -0.000131
      6.30934      5.23042      8.14524        -0.000180     -0.000141     -0.000051
     10.22125      5.21128      8.14524        -0.000402     -0.000286     -0.000158
      2.42483     10.85874      8.14524        -0.000437      0.000563      0.000302
      6.33674     10.83959      8.14524        -0.000181      0.000358      0.000199
     10.24865     10.82044      8.14524         0.000077      0.000554      0.000289
      2.39183      4.11329      4.18453         0.000011      0.001814      0.000053
      6.30374      4.09414      4.18453        -0.000024      0.000328      0.000209
     10.21565      4.07499      4.18453        -0.000205      0.001798      0.000108
      2.41924      9.72245      4.18453        -0.000027     -0.001042      0.000172
      6.33115      9.70331      4.18453        -0.000020     -0.000340      0.000236
     10.24306      9.68416      4.18453        -0.000205     -0.001063      0.000244
      2.39183      4.11329      9.78234         0.000012      0.003837     -0.000266
      6.30374      4.09414      9.78234        -0.000019      0.000558      0.000157
     10.21565      4.07499      9.78234        -0.000191      0.003859     -0.000268
      2.41924      9.72245      9.78234        -0.000005     -0.001888      0.000229
      6.33115      9.70331      9.78234        -0.000012     -0.000755      0.000250
     10.24306      9.68416      9.78234        -0.000242     -0.001853      0.000246
      2.37813      1.30870      1.41328         0.005678     -0.008209     -0.000607
      6.29004      1.28956      1.41328        -0.000015     -0.000008     -0.000099
     10.20195      1.27041      1.41328        -0.005975     -0.008147     -0.000668
      2.40554      6.91787      1.41328        -0.005812     -0.007835     -0.000133
      6.31744      6.89872      1.41328        -0.000006      0.000081     -0.000320
     10.22935      6.87958      1.41328         0.005511     -0.007911     -0.000204
      2.37813      1.30870      7.01109         0.000466      0.000100     -0.000322
      6.29004      1.28956      7.01109        -0.000015      0.000022     -0.000443
     10.20195      1.27041      7.01109        -0.000681      0.000129     -0.000328
      2.40554      6.91787      7.01109        -0.000472      0.000009      0.000038
      6.31744      6.89872      7.01109        -0.000012     -0.000028     -0.000063
     10.22935      6.87958      7.01109         0.000257      0.000038      0.000003
      0.43600      4.14009      1.34677         0.000046      0.042168      0.013507
      4.34796      4.13094      1.34677         0.000063      0.001345     -0.000175
      8.25987      4.11179      1.34677        -0.000384      0.001355     -0.000173
      0.46346      9.75926      1.34677        -0.000175     -0.002139     -0.000107
      4.37537      9.74011      1.34677        -0.000219     -0.001369     -0.000096
      8.28728      9.72096      1.34677        -0.000132     -0.001359     -0.000096
      0.43605      4.15009      6.94458        -0.000159      0.000654     -0.000101
      4.34796      4.13094      6.94458        -0.000193      0.000270     -0.000096
      8.25987      4.11179      6.94458        -0.000138      0.000266     -0.000101
      0.46346      9.75926      6.94458        -0.000167     -0.001410     -0.000100
      4.37537      9.74011      6.94458        -0.000182     -0.000468     -0.000098
      8.28728      9.72096      6.94458        -0.000152     -0.000471     -0.000099
      0.42235      1.34551      4.25104        -0.000180     -0.002122      0.003127
      4.33426      1.32636      4.25104         0.000159     -0.000092      0.000329
      8.24617      1.30721      4.25104        -0.000493     -0.000091      0.000327
      0.44976      6.95467      4.25104        -0.000176     -0.002112     -0.002952
      4.36166      6.93553      4.25104        -0.000536     -0.000097     -0.000104
      8.27357      6.91638      4.25104         0.000199     -0.000094     -0.000103
      0.42235      1.34551      9.84885        -0.000178     -0.003028     -0.003579
      4.33426      1.32636      9.84885         0.000655     -0.000275     -0.000310
      8.24617      1.30721      9.84885        -0.000991     -0.000276     -0.000305
      0.44976      6.95467      9.84885        -0.000175     -0.003013      0.003766
      4.36166      6.93553      9.84885        -0.000935     -0.000270      0.000493
      8.27357      6.91638      9.84885         0.000599     -0.000285      0.000495
      2.37239      0.12585      5.37429        -0.000606      0.000738     -0.000028
      6.28430      0.10670      5.37429        -0.000229      0.000433      0.000031
     10.19621      0.08756      5.37429         0.000227      0.000717     -0.000030
      2.39979      5.73502      5.37429         0.000444     -0.000660      0.000316
      6.31170      5.71587      5.37429        -0.000232     -0.000296      0.000081
     10.22361      5.69672      5.37429        -0.000841     -0.000680      0.000300
      2.37239      0.12585     10.97210        -0.000500      0.002627      0.001502
      6.28430      0.10670     10.97210        -0.000231      0.000617     -0.000359
     10.19621      0.08756     10.97210         0.000152      0.002615      0.001527
      2.39979      5.73502     10.97210         0.003474     -0.001222     -0.003353
      6.31170      5.71587     10.97210        -0.000235     -0.000476      0.000453
     10.22361      5.69672     10.97210        -0.003865     -0.001196     -0.003322
      2.38609      2.93043      0.22352         0.003056     -0.006195     -0.000994
      6.29800      2.91129      0.22352        -0.000236     -0.000327     -0.000268
     10.20991      2.89214      0.22352        -0.003495     -0.006184     -0.000972
      2.41350      8.53960      0.22352         0.000163      0.002768     -0.001226
      6.32541      8.52045      0.22352        -0.000232      0.000456      0.000236
     10.23731      8.50131      0.22352        -0.000516      0.002747     -0.001199
      2.38609      2.93043      5.82133        -0.000364     -0.000642     -0.000131
      6.29800      2.91129      5.82133        -0.000231     -0.000305     -0.000067
     10.20991      2.89214      5.82133        -0.000032     -0.000662     -0.000155
      2.41350      8.53960      5.82133         0.000386      0.000827      0.000054
      6.32541      8.52045      5.82133        -0.000227      0.000411     -0.000007
     10.23731      8.50131      5.82133        -0.000761      0.000827      0.000032
 -----------------------------------------------------------------------------------
    total drift:                               -0.000666      0.001142     -0.000025


--------------------------------------------------------------------------------------------------------



  FREE ENERGIE OF THE ION-ELECTRON SYSTEM (eV)
  ---------------------------------------------------
  free  energy   TOTEN  =      -616.43228849 eV

  energy  without entropy=     -616.43228849  energy(sigma->0) =     -616.43228849
 


--------------------------------------------------------------------------------------------------------


    POTLOK:  cpu time    1.9445: real time    1.9672


--------------------------------------------------------------------------------------------------------


     LOOP+:  cpu time 5343.3567: real time 5392.4068
    4ORBIT:  cpu time    0.0000: real time    0.0000

 total amount of memory used by VASP MPI-rank0   801761. kBytes
=======================================================================

   base      :      30000. kBytes
   nonl-proj :      92491. kBytes
   fftplans  :      50318. kBytes
   grid      :      44712. kBytes
   one-center:        622. kBytes
   wavefun   :     583618. kBytes
 
  
  
 General timing and accounting informations for this job:
 ========================================================
  
                  Total CPU time used (sec):     5442.487
                            User time (sec):     5380.759
                          System time (sec):       61.728
                         Elapsed time (sec):     5494.380
  
                   Maximum memory used (kb):      974056.
                   Average memory used (kb):           0.
  
                          Minor page faults:       536315
                          Major page faults:            6
                 Voluntary context switches:        56378
