  99  99   0   0
  0.1430410E+02  0.1177748E-08  0.1177748E-08  0.1058004E-08  0.5000000E-15
  1.000000000000000E-004
  CAR 
 unknown system                          
     17.97000105    -54.33817795  301      5.25581291      1.00000000
    -54.338  0.0000E+00  0.0000E+00  0.0000E+00  0.0000E+00
    -54.097  0.0000E+00  0.0000E+00  0.0000E+00  0.0000E+00
    -53.856  0.0000E+00  0.0000E+00  0.0000E+00  0.0000E+00
    -53.615  0.0000E+00  0.0000E+00  0.0000E+00  0.0000E+00
    -53.374  0.0000E+00  0.0000E+00  0.0000E+00  0.0000E+00
    -53.133  0.0000E+00  0.0000E+00  0.0000E+00  0.0000E+00
    -52.892  0.0000E+00  0.0000E+00  0.0000E+00  0.0000E+00
    -52.651  0.0000E+00  0.0000E+00  0.0000E+00  0.0000E+00
    -52.410  0.0000E+00  0.0000E+00  0.0000E+00  0.0000E+00
    -52.169  0.0000E+00  0.0000E+00  0.0000E+00  0.0000E+00
    -51.928  0.0000E+00  0.0000E+00  0.0000E+00  0.0000E+00
    -51.687  0.0000E+00  0.0000E+00  0.0000E+00  0.0000E+00
    -51.446  0.0000E+00  0.0000E+00  0.0000E+00  0.0000E+00
    -51.205  0.4659E-03  0.0000E+00  0.1123E-03  0.0000E+00
    -50.964  0.1472E+03  0.0000E+00  0.3549E+02  0.0000E+00
    -50.723  0.2111E+01  0.0000E+00  0.3600E+02  0.0000E+00
    -50.482  0.0000E+00  0.0000E+00  0.3600E+02  0.0000E+00
    -50.241  0.0000E+00  0.0000E+00  0.3600E+02  0.0000E+00
    -50.000  0.0000E+00  0.0000E+00  0.3600E+02  0.0000E+00
    -49.759  0.1848E+01  0.0000E+00  0.3645E+02  0.0000E+00
    -49.518  0.2716E+03  0.0000E+00  0.1019E+03  0.0000E+00
    -49.277  0.2529E+02  0.0000E+00  0.1080E+03  0.0000E+00
    -49.036  0.0000E+00  0.0000E+00  0.1080E+03  0.0000E+00
    -48.795  0.0000E+00  0.0000E+00  0.1080E+03  0.0000E+00
    -48.554  0.0000E+00  0.0000E+00  0.1080E+03  0.0000E+00
    -48.312  0.0000E+00  0.0000E+00  0.1080E+03  0.0000E+00
    -48.071  0.0000E+00  0.0000E+00  0.1080E+03  0.0000E+00
    -47.830  0.0000E+00  0.0000E+00  0.1080E+03  0.0000E+00
    -47.589  0.0000E+00  0.0000E+00  0.1080E+03  0.0000E+00
    -47.348  0.0000E+00  0.0000E+00  0.1080E+03  0.0000E+00
    -47.107  0.0000E+00  0.0000E+00  0.1080E+03  0.0000E+00
    -46.866  0.0000E+00  0.0000E+00  0.1080E+03  0.0000E+00
    -46.625  0.0000E+00  0.0000E+00  0.1080E+03  0.0000E+00
    -46.384  0.0000E+00  0.4285E+00  0.1080E+03  0.1033E+00
    -46.143  0.0000E+00  0.1489E+03  0.1080E+03  0.3599E+02
    -45.902  0.0000E+00  0.7248E+02  0.1080E+03  0.5346E+02
    -45.661  0.0000E+00  0.2263E+03  0.1080E+03  0.1080E+03
    -45.420  0.0000E+00  0.0000E+00  0.1080E+03  0.1080E+03
    -45.179  0.0000E+00  0.0000E+00  0.1080E+03  0.1080E+03
    -44.938  0.0000E+00  0.0000E+00  0.1080E+03  0.1080E+03
    -44.697  0.0000E+00  0.0000E+00  0.1080E+03  0.1080E+03
    -44.456  0.0000E+00  0.0000E+00  0.1080E+03  0.1080E+03
    -44.215  0.0000E+00  0.0000E+00  0.1080E+03  0.1080E+03
    -43.974  0.0000E+00  0.0000E+00  0.1080E+03  0.1080E+03
    -43.733  0.0000E+00  0.0000E+00  0.1080E+03  0.1080E+03
    -43.492  0.0000E+00  0.0000E+00  0.1080E+03  0.1080E+03
    -43.251  0.0000E+00  0.0000E+00  0.1080E+03  0.1080E+03
    -43.010  0.0000E+00  0.0000E+00  0.1080E+03  0.1080E+03
    -42.769  0.0000E+00  0.0000E+00  0.1080E+03  0.1080E+03
    -42.528  0.0000E+00  0.0000E+00  0.1080E+03  0.1080E+03
    -42.287  0.0000E+00  0.0000E+00  0.1080E+03  0.1080E+03
    -42.046  0.0000E+00  0.0000E+00  0.1080E+03  0.1080E+03
    -41.805  0.0000E+00  0.0000E+00  0.1080E+03  0.1080E+03
    -41.564  0.0000E+00  0.0000E+00  0.1080E+03  0.1080E+03
    -41.323  0.0000E+00  0.0000E+00  0.1080E+03  0.1080E+03
    -41.082  0.0000E+00  0.0000E+00  0.1080E+03  0.1080E+03
    -40.841  0.0000E+00  0.0000E+00  0.1080E+03  0.1080E+03
    -40.600  0.0000E+00  0.0000E+00  0.1080E+03  0.1080E+03
    -40.359  0.0000E+00  0.0000E+00  0.1080E+03  0.1080E+03
    -40.118  0.2066E-10  0.1339E-10  0.1080E+03  0.1080E+03
    -39.877  0.2585E+02  0.2425E+02  0.1142E+03  0.1138E+03
    -39.636  0.4883E+02  0.5043E+02  0.1260E+03  0.1260E+03
    -39.394  0.0000E+00  0.0000E+00  0.1260E+03  0.1260E+03
    -39.153  0.0000E+00  0.0000E+00  0.1260E+03  0.1260E+03
    -38.912  0.0000E+00  0.0000E+00  0.1260E+03  0.1260E+03
    -38.671  0.0000E+00  0.0000E+00  0.1260E+03  0.1260E+03
    -38.430  0.0000E+00  0.0000E+00  0.1260E+03  0.1260E+03
    -38.189  0.0000E+00  0.0000E+00  0.1260E+03  0.1260E+03
    -37.948  0.0000E+00  0.0000E+00  0.1260E+03  0.1260E+03
    -37.707  0.0000E+00  0.0000E+00  0.1260E+03  0.1260E+03
    -37.466  0.0000E+00  0.0000E+00  0.1260E+03  0.1260E+03
    -37.225  0.0000E+00  0.0000E+00  0.1260E+03  0.1260E+03
    -36.984  0.0000E+00  0.0000E+00  0.1260E+03  0.1260E+03
    -36.743  0.0000E+00  0.0000E+00  0.1260E+03  0.1260E+03
    -36.502  0.0000E+00  0.0000E+00  0.1260E+03  0.1260E+03
    -36.261  0.0000E+00  0.0000E+00  0.1260E+03  0.1260E+03
    -36.020  0.0000E+00  0.0000E+00  0.1260E+03  0.1260E+03
    -35.779  0.0000E+00  0.0000E+00  0.1260E+03  0.1260E+03
    -35.538  0.0000E+00  0.0000E+00  0.1260E+03  0.1260E+03
    -35.297  0.0000E+00  0.0000E+00  0.1260E+03  0.1260E+03
    -35.056  0.0000E+00  0.0000E+00  0.1260E+03  0.1260E+03
    -34.815  0.0000E+00  0.0000E+00  0.1260E+03  0.1260E+03
    -34.574  0.0000E+00  0.0000E+00  0.1260E+03  0.1260E+03
    -34.333  0.0000E+00  0.0000E+00  0.1260E+03  0.1260E+03
    -34.092  0.0000E+00  0.0000E+00  0.1260E+03  0.1260E+03
    -33.851  0.0000E+00  0.0000E+00  0.1260E+03  0.1260E+03
    -33.610  0.0000E+00  0.0000E+00  0.1260E+03  0.1260E+03
    -33.369  0.0000E+00  0.0000E+00  0.1260E+03  0.1260E+03
    -33.128  0.0000E+00  0.0000E+00  0.1260E+03  0.1260E+03
    -32.887  0.0000E+00  0.0000E+00  0.1260E+03  0.1260E+03
    -32.646  0.0000E+00  0.0000E+00  0.1260E+03  0.1260E+03
    -32.405  0.0000E+00  0.0000E+00  0.1260E+03  0.1260E+03
    -32.164  0.0000E+00  0.0000E+00  0.1260E+03  0.1260E+03
    -31.923  0.0000E+00  0.0000E+00  0.1260E+03  0.1260E+03
    -31.682  0.0000E+00  0.0000E+00  0.1260E+03  0.1260E+03
    -31.441  0.0000E+00  0.0000E+00  0.1260E+03  0.1260E+03
    -31.200  0.0000E+00  0.0000E+00  0.1260E+03  0.1260E+03
    -30.959  0.0000E+00  0.0000E+00  0.1260E+03  0.1260E+03
    -30.718  0.0000E+00  0.0000E+00  0.1260E+03  0.1260E+03
    -30.476  0.0000E+00  0.0000E+00  0.1260E+03  0.1260E+03
    -30.235  0.0000E+00  0.0000E+00  0.1260E+03  0.1260E+03
    -29.994  0.0000E+00  0.0000E+00  0.1260E+03  0.1260E+03
    -29.753  0.0000E+00  0.0000E+00  0.1260E+03  0.1260E+03
    -29.512  0.0000E+00  0.0000E+00  0.1260E+03  0.1260E+03
    -29.271  0.0000E+00  0.0000E+00  0.1260E+03  0.1260E+03
    -29.030  0.0000E+00  0.0000E+00  0.1260E+03  0.1260E+03
    -28.789  0.0000E+00  0.0000E+00  0.1260E+03  0.1260E+03
    -28.548  0.0000E+00  0.0000E+00  0.1260E+03  0.1260E+03
    -28.307  0.0000E+00  0.0000E+00  0.1260E+03  0.1260E+03
    -28.066  0.0000E+00  0.0000E+00  0.1260E+03  0.1260E+03
    -27.825  0.0000E+00  0.0000E+00  0.1260E+03  0.1260E+03
    -27.584  0.0000E+00  0.0000E+00  0.1260E+03  0.1260E+03
    -27.343  0.0000E+00  0.0000E+00  0.1260E+03  0.1260E+03
    -27.102  0.0000E+00  0.0000E+00  0.1260E+03  0.1260E+03
    -26.861  0.0000E+00  0.0000E+00  0.1260E+03  0.1260E+03
    -26.620  0.0000E+00  0.0000E+00  0.1260E+03  0.1260E+03
    -26.379  0.0000E+00  0.0000E+00  0.1260E+03  0.1260E+03
    -26.138  0.0000E+00  0.0000E+00  0.1260E+03  0.1260E+03
    -25.897  0.0000E+00  0.0000E+00  0.1260E+03  0.1260E+03
    -25.656  0.0000E+00  0.0000E+00  0.1260E+03  0.1260E+03
    -25.415  0.0000E+00  0.0000E+00  0.1260E+03  0.1260E+03
    -25.174  0.0000E+00  0.0000E+00  0.1260E+03  0.1260E+03
    -24.933  0.0000E+00  0.0000E+00  0.1260E+03  0.1260E+03
    -24.692  0.0000E+00  0.0000E+00  0.1260E+03  0.1260E+03
    -24.451  0.0000E+00  0.0000E+00  0.1260E+03  0.1260E+03
    -24.210  0.0000E+00  0.0000E+00  0.1260E+03  0.1260E+03
    -23.969  0.0000E+00  0.0000E+00  0.1260E+03  0.1260E+03
    -23.728  0.0000E+00  0.0000E+00  0.1260E+03  0.1260E+03
    -23.487  0.0000E+00  0.0000E+00  0.1260E+03  0.1260E+03
    -23.246  0.0000E+00  0.0000E+00  0.1260E+03  0.1260E+03
    -23.005  0.0000E+00  0.0000E+00  0.1260E+03  0.1260E+03
    -22.764  0.0000E+00  0.0000E+00  0.1260E+03  0.1260E+03
    -22.523  0.0000E+00  0.0000E+00  0.1260E+03  0.1260E+03
    -22.282  0.0000E+00  0.0000E+00  0.1260E+03  0.1260E+03
    -22.041  0.0000E+00  0.0000E+00  0.1260E+03  0.1260E+03
    -21.799  0.0000E+00  0.0000E+00  0.1260E+03  0.1260E+03
    -21.558  0.0000E+00  0.0000E+00  0.1260E+03  0.1260E+03
    -21.317  0.0000E+00  0.0000E+00  0.1260E+03  0.1260E+03
    -21.076  0.0000E+00  0.0000E+00  0.1260E+03  0.1260E+03
    -20.835  0.0000E+00  0.0000E+00  0.1260E+03  0.1260E+03
    -20.594  0.0000E+00  0.0000E+00  0.1260E+03  0.1260E+03
    -20.353  0.0000E+00  0.0000E+00  0.1260E+03  0.1260E+03
    -20.112  0.0000E+00  0.0000E+00  0.1260E+03  0.1260E+03
    -19.871  0.0000E+00  0.0000E+00  0.1260E+03  0.1260E+03
    -19.630  0.0000E+00  0.0000E+00  0.1260E+03  0.1260E+03
    -19.389  0.0000E+00  0.0000E+00  0.1260E+03  0.1260E+03
    -19.148  0.0000E+00  0.0000E+00  0.1260E+03  0.1260E+03
    -18.907  0.0000E+00  0.0000E+00  0.1260E+03  0.1260E+03
    -18.666  0.0000E+00  0.0000E+00  0.1260E+03  0.1260E+03
    -18.425  0.0000E+00  0.0000E+00  0.1260E+03  0.1260E+03
    -18.184  0.0000E+00  0.0000E+00  0.1260E+03  0.1260E+03
    -17.943  0.0000E+00  0.0000E+00  0.1260E+03  0.1260E+03
    -17.702  0.0000E+00  0.0000E+00  0.1260E+03  0.1260E+03
    -17.461  0.0000E+00  0.0000E+00  0.1260E+03  0.1260E+03
    -17.220  0.0000E+00  0.0000E+00  0.1260E+03  0.1260E+03
    -16.979  0.0000E+00  0.0000E+00  0.1260E+03  0.1260E+03
    -16.738  0.0000E+00  0.0000E+00  0.1260E+03  0.1260E+03
    -16.497  0.0000E+00  0.0000E+00  0.1260E+03  0.1260E+03
    -16.256  0.0000E+00  0.0000E+00  0.1260E+03  0.1260E+03
    -16.015  0.0000E+00  0.0000E+00  0.1260E+03  0.1260E+03
    -15.774  0.0000E+00  0.0000E+00  0.1260E+03  0.1260E+03
    -15.533  0.0000E+00  0.0000E+00  0.1260E+03  0.1260E+03
    -15.292  0.0000E+00  0.0000E+00  0.1260E+03  0.1260E+03
    -15.051  0.0000E+00  0.0000E+00  0.1260E+03  0.1260E+03
    -14.810  0.0000E+00  0.0000E+00  0.1260E+03  0.1260E+03
    -14.569  0.0000E+00  0.0000E+00  0.1260E+03  0.1260E+03
    -14.328  0.0000E+00  0.0000E+00  0.1260E+03  0.1260E+03
    -14.087  0.0000E+00  0.0000E+00  0.1260E+03  0.1260E+03
    -13.846  0.0000E+00  0.0000E+00  0.1260E+03  0.1260E+03
    -13.605  0.0000E+00  0.0000E+00  0.1260E+03  0.1260E+03
    -13.364  0.9579E-03  0.0000E+00  0.1260E+03  0.1260E+03
    -13.123  0.3343E+02  0.2047E-15  0.1341E+03  0.1260E+03
    -12.881  0.4117E+02  0.5923E+00  0.1440E+03  0.1261E+03
    -12.640  0.8018E-01  0.6230E+02  0.1440E+03  0.1412E+03
    -12.399  0.0000E+00  0.1179E+02  0.1440E+03  0.1440E+03
    -12.158  0.0000E+00  0.0000E+00  0.1440E+03  0.1440E+03
    -11.917  0.0000E+00  0.0000E+00  0.1440E+03  0.1440E+03
    -11.676  0.0000E+00  0.0000E+00  0.1440E+03  0.1440E+03
    -11.435  0.0000E+00  0.0000E+00  0.1440E+03  0.1440E+03
    -11.194  0.0000E+00  0.0000E+00  0.1440E+03  0.1440E+03
    -10.953  0.0000E+00  0.0000E+00  0.1440E+03  0.1440E+03
    -10.712  0.0000E+00  0.0000E+00  0.1440E+03  0.1440E+03
    -10.471  0.0000E+00  0.0000E+00  0.1440E+03  0.1440E+03
    -10.230  0.0000E+00  0.0000E+00  0.1440E+03  0.1440E+03
     -9.989  0.0000E+00  0.0000E+00  0.1440E+03  0.1440E+03
     -9.748  0.0000E+00  0.0000E+00  0.1440E+03  0.1440E+03
     -9.507  0.0000E+00  0.0000E+00  0.1440E+03  0.1440E+03
     -9.266  0.0000E+00  0.0000E+00  0.1440E+03  0.1440E+03
     -9.025  0.0000E+00  0.0000E+00  0.1440E+03  0.1440E+03
     -8.784  0.0000E+00  0.0000E+00  0.1440E+03  0.1440E+03
     -8.543  0.0000E+00  0.0000E+00  0.1440E+03  0.1440E+03
     -8.302  0.0000E+00  0.0000E+00  0.1440E+03  0.1440E+03
     -8.061  0.0000E+00  0.0000E+00  0.1440E+03  0.1440E+03
     -7.820  0.5168E-09  0.0000E+00  0.1440E+03  0.1440E+03
     -7.579  0.9115E+00  0.7609E-10  0.1442E+03  0.1440E+03
     -7.338  0.1926E+02  0.8010E+00  0.1489E+03  0.1442E+03
     -7.097  0.3156E+02  0.2124E+02  0.1565E+03  0.1493E+03
     -6.856  0.3666E+02  0.2992E+02  0.1653E+03  0.1565E+03
     -6.615  0.2363E+02  0.2731E+02  0.1710E+03  0.1631E+03
     -6.374  0.8052E-05  0.3270E+02  0.1710E+03  0.1710E+03
     -6.133  0.0000E+00  0.3867E-01  0.1710E+03  0.1710E+03
     -5.892  0.0000E+00  0.0000E+00  0.1710E+03  0.1710E+03
     -5.651  0.0000E+00  0.0000E+00  0.1710E+03  0.1710E+03
     -5.410  0.0000E+00  0.0000E+00  0.1710E+03  0.1710E+03
     -5.169  0.0000E+00  0.0000E+00  0.1710E+03  0.1710E+03
     -4.928  0.0000E+00  0.0000E+00  0.1710E+03  0.1710E+03
     -4.687  0.0000E+00  0.0000E+00  0.1710E+03  0.1710E+03
     -4.446  0.0000E+00  0.0000E+00  0.1710E+03  0.1710E+03
     -4.205  0.0000E+00  0.0000E+00  0.1710E+03  0.1710E+03
     -3.963  0.0000E+00  0.0000E+00  0.1710E+03  0.1710E+03
     -3.722  0.0000E+00  0.0000E+00  0.1710E+03  0.1710E+03
     -3.481  0.0000E+00  0.0000E+00  0.1710E+03  0.1710E+03
     -3.240  0.0000E+00  0.0000E+00  0.1710E+03  0.1710E+03
     -2.999  0.0000E+00  0.0000E+00  0.1710E+03  0.1710E+03
     -2.758  0.0000E+00  0.0000E+00  0.1710E+03  0.1710E+03
     -2.517  0.0000E+00  0.0000E+00  0.1710E+03  0.1710E+03
     -2.276  0.0000E+00  0.0000E+00  0.1710E+03  0.1710E+03
     -2.035  0.3388E-01  0.0000E+00  0.1710E+03  0.1710E+03
     -1.794  0.2621E+02  0.0000E+00  0.1773E+03  0.1710E+03
     -1.553  0.1855E+02  0.0000E+00  0.1818E+03  0.1710E+03
     -1.312  0.1479E+02  0.0000E+00  0.1854E+03  0.1710E+03
     -1.071  0.2411E+02  0.0000E+00  0.1912E+03  0.1710E+03
     -0.830  0.5718E+02  0.0000E+00  0.2050E+03  0.1710E+03
     -0.589  0.6231E+02  0.1054E-02  0.2200E+03  0.1710E+03
     -0.348  0.4114E+02  0.1091E+02  0.2299E+03  0.1736E+03
     -0.107  0.8223E+02  0.2052E+02  0.2497E+03  0.1786E+03
      0.134  0.8996E+02  0.1347E+02  0.2714E+03  0.1818E+03
      0.375  0.8289E+02  0.2395E+02  0.2914E+03  0.1876E+03
      0.616  0.7288E+02  0.3259E+02  0.3089E+03  0.1954E+03
      0.857  0.5883E+02  0.4730E+02  0.3231E+03  0.2068E+03
      1.098  0.3833E+02  0.4061E+02  0.3324E+03  0.2166E+03
      1.339  0.3688E+02  0.3292E+02  0.3412E+03  0.2246E+03
      1.580  0.4969E+02  0.2515E+02  0.3532E+03  0.2306E+03
      1.821  0.5561E+02  0.3269E+02  0.3666E+03  0.2385E+03
      2.062  0.7630E+02  0.4105E+02  0.3850E+03  0.2484E+03
      2.303  0.6049E+02  0.2655E+02  0.3996E+03  0.2548E+03
      2.544  0.3240E+02  0.2977E+02  0.4074E+03  0.2620E+03
      2.785  0.5090E+02  0.4107E+02  0.4197E+03  0.2719E+03
      3.026  0.2224E+02  0.4640E+02  0.4250E+03  0.2831E+03
      3.267  0.1092E+02  0.4712E+02  0.4277E+03  0.2944E+03
      3.508  0.3891E+02  0.3981E+02  0.4370E+03  0.3040E+03
      3.749  0.2564E+02  0.6907E+01  0.4432E+03  0.3057E+03
      3.990  0.3817E+02  0.2500E+02  0.4524E+03  0.3117E+03
      4.231  0.3865E+02  0.7507E+02  0.4617E+03  0.3298E+03
      4.472  0.3864E+02  0.4079E+02  0.4711E+03  0.3396E+03
      4.714  0.3544E+02  0.9828E+01  0.4796E+03  0.3420E+03
      4.955  0.2403E+02  0.0000E+00  0.4854E+03  0.3420E+03
      5.196  0.2549E+01  0.0000E+00  0.4860E+03  0.3420E+03
      5.437  0.0000E+00  0.0000E+00  0.4860E+03  0.3420E+03
      5.678  0.0000E+00  0.0000E+00  0.4860E+03  0.3420E+03
      5.919  0.0000E+00  0.0000E+00  0.4860E+03  0.3420E+03
      6.160  0.0000E+00  0.1045E-07  0.4860E+03  0.3420E+03
      6.401  0.0000E+00  0.1579E+01  0.4860E+03  0.3424E+03
      6.642  0.0000E+00  0.5078E+01  0.4860E+03  0.3436E+03
      6.883  0.0000E+00  0.1129E+02  0.4860E+03  0.3463E+03
      7.124  0.7475E-12  0.2170E+02  0.4860E+03  0.3516E+03
      7.365  0.7725E-01  0.6130E+02  0.4860E+03  0.3663E+03
      7.606  0.7641E-01  0.6204E+02  0.4860E+03  0.3813E+03
      7.847  0.6046E+00  0.6272E+02  0.4862E+03  0.3964E+03
      8.088  0.7340E+00  0.7545E+02  0.4864E+03  0.4146E+03
      8.329  0.2517E+01  0.8104E+02  0.4870E+03  0.4341E+03
      8.570  0.4656E+01  0.6845E+02  0.4881E+03  0.4506E+03
      8.811  0.1001E+02  0.6482E+02  0.4905E+03  0.4662E+03
      9.052  0.1471E+02  0.4455E+02  0.4940E+03  0.4770E+03
      9.293  0.1707E+02  0.3159E+02  0.4982E+03  0.4846E+03
      9.534  0.1929E+02  0.8315E+01  0.5028E+03  0.4866E+03
      9.775  0.1631E+02  0.5922E+01  0.5067E+03  0.4880E+03
     10.016  0.2463E+02  0.1177E+02  0.5127E+03  0.4909E+03
     10.257  0.1652E+02  0.1772E+02  0.5167E+03  0.4951E+03
     10.498  0.2192E+02  0.2284E+02  0.5219E+03  0.5006E+03
     10.739  0.1317E+02  0.2247E+02  0.5251E+03  0.5061E+03
     10.980  0.1558E+02  0.2321E+02  0.5289E+03  0.5116E+03
     11.221  0.2301E+02  0.3051E+02  0.5344E+03  0.5190E+03
     11.462  0.3270E+02  0.1999E+02  0.5423E+03  0.5238E+03
     11.703  0.2811E+02  0.1780E+02  0.5491E+03  0.5281E+03
     11.944  0.3359E+02  0.1143E+02  0.5572E+03  0.5309E+03
     12.185  0.3575E+02  0.2657E+02  0.5658E+03  0.5373E+03
     12.426  0.2199E+02  0.4561E+02  0.5711E+03  0.5483E+03
     12.667  0.1951E+02  0.3483E+02  0.5758E+03  0.5567E+03
     12.908  0.2484E+02  0.3124E+02  0.5818E+03  0.5642E+03
     13.149  0.2656E+02  0.2065E+02  0.5882E+03  0.5692E+03
     13.390  0.2842E+02  0.2478E+02  0.5950E+03  0.5751E+03
     13.632  0.2474E+02  0.3298E+02  0.6010E+03  0.5831E+03
     13.873  0.1766E+02  0.2606E+02  0.6052E+03  0.5894E+03
     14.114  0.3135E+01  0.2566E+02  0.6060E+03  0.5956E+03
     14.355  0.4633E-04  0.2331E+02  0.6060E+03  0.6012E+03
     14.596  0.0000E+00  0.1827E+02  0.6060E+03  0.6056E+03
     14.837  0.0000E+00  0.1765E+01  0.6060E+03  0.6060E+03
     15.078  0.0000E+00  0.2207E-05  0.6060E+03  0.6060E+03
     15.319  0.0000E+00  0.0000E+00  0.6060E+03  0.6060E+03
     15.560  0.0000E+00  0.0000E+00  0.6060E+03  0.6060E+03
     15.801  0.0000E+00  0.0000E+00  0.6060E+03  0.6060E+03
     16.042  0.0000E+00  0.0000E+00  0.6060E+03  0.6060E+03
     16.283  0.0000E+00  0.0000E+00  0.6060E+03  0.6060E+03
     16.524  0.0000E+00  0.0000E+00  0.6060E+03  0.6060E+03
     16.765  0.0000E+00  0.0000E+00  0.6060E+03  0.6060E+03
     17.006  0.0000E+00  0.0000E+00  0.6060E+03  0.6060E+03
     17.247  0.0000E+00  0.0000E+00  0.6060E+03  0.6060E+03
     17.488  0.0000E+00  0.0000E+00  0.6060E+03  0.6060E+03
     17.729  0.0000E+00  0.0000E+00  0.6060E+03  0.6060E+03
     17.970  0.0000E+00  0.0000E+00  0.6060E+03  0.6060E+03
