<?xml version="1.0" encoding="ISO-8859-1"?>
<modeling>
 <generator>
  <i name="program" type="string">vasp </i>
  <i name="version" type="string">5.4.4.18Apr17-6-g9f103f2a35  </i>
  <i name="subversion" type="string">(build Oct 25 2017 14:42:18) complex            parallel </i>
  <i name="platform" type="string">LinuxIFC </i>
  <i name="date" type="string">2021 05 28 </i>
  <i name="time" type="string">04:53:48 </i>
 </generator>
 <incar>
  <i type="string" name="PREC">accurate</i>
  <i type="string" name="ALGO"> normal</i>
  <i type="logical" name="ADDGRID"> T  </i>
  <i type="int" name="ISPIN">     2</i>
  <i type="int" name="ICHARG">     1</i>
  <i type="int" name="NELM">   200</i>
  <i type="int" name="NELMIN">     8</i>
  <i name="EDIFF">      0.00000100</i>
  <i type="int" name="ISYM">     0</i>
  <i name="ENCUT">    650.00000000</i>
  <v name="MAGMOM">      0.60000000      0.60000000      0.60000000      0.60000000      0.60000000      0.60000000      0.60000000      0.60000000      0.60000000      0.60000000      0.60000000      0.60000000      0.60000000      0.60000000      0.60000000      0.60000000      0.60000000      0.60000000      0.60000000      0.60000000
      0.60000000      0.60000000      0.60000000      0.60000000      0.60000000      0.60000000      0.60000000      0.60000000      0.60000000      0.60000000      0.60000000      0.60000000      0.60000000      0.60000000      0.60000000      0.60000000      0.60000000      0.60000000      0.60000000      0.60000000
      0.60000000      0.60000000      0.60000000      0.60000000      0.60000000      0.60000000      0.60000000      0.60000000      0.60000000      0.60000000      0.60000000      0.60000000      0.60000000      0.60000000      0.60000000      0.60000000      0.60000000      0.60000000      0.60000000      0.60000000
      0.60000000      0.60000000      0.60000000      5.00000000      5.00000000      5.00000000      5.00000000      5.00000000      5.00000000      5.00000000      5.00000000      5.00000000      5.00000000      5.00000000      5.00000000      5.00000000      5.00000000      5.00000000      5.00000000      5.00000000
      5.00000000      5.00000000      5.00000000      5.00000000      5.00000000      5.00000000      5.00000000      5.00000000      5.00000000      5.00000000      5.00000000      5.00000000      5.00000000      5.00000000      5.00000000      5.00000000      5.00000000      5.00000000      5.00000000</v>
  <i type="logical" name="LREAL"> F  </i>
  <i type="int" name="ISMEAR">     0</i>
  <i name="SIGMA">      0.05000000</i>
  <i type="int" name="NWRITE">     1</i>
  <i type="int" name="LMAXMIX">     4</i>
  <i type="logical" name="LWAVE"> F  </i>
  <i type="logical" name="LASPH"> T  </i>
  <v type="int" name="KPOINT_BSE">    -1     0     0     0</v>
  <i type="int" name="NELM">   200</i>
  <i type="string" name="GGA"> pe</i>
  <i type="logical" name="LDAU"> T  </i>
  <v type="int" name="LDAUTYPE">     2</v>
  <v type="int" name="LDAUL">    -1    -1    -1     2</v>
  <v name="LDAUU">      0.00000000      0.00000000      0.00000000      4.00000000</v>
  <v name="LDAUJ">      0.00000000      0.00000000      0.00000000      0.00000000</v>
  <i type="logical" name="LASPH"> T  </i>
 </incar>
 <structure name="primitive_cell" >
  <crystal>
   <varray name="basis" >
    <v>      11.77726974       0.00848871       0.06923316 </v>
    <v>      -0.03028248      11.77723386       0.06923316 </v>
    <v>      -2.02000231      -2.02666320      10.18574622 </v>
   </varray>
   <i name="volume">   1416.10551572 </i>
   <varray name="rec_basis" >
    <v>       0.08481023       0.00011906       0.01684296 </v>
    <v>      -0.00016014       0.08481016       0.01684296 </v>
    <v>      -0.00057537      -0.00057727       0.09794744 </v>
   </varray>
  </crystal>
  <varray name="positions" >
   <v>       0.20224939       0.24206952      -0.16816581 </v>
   <v>       0.19734517       0.40355659      -0.19686089 </v>
   <v>       0.19734517       0.07022326      -0.19686089 </v>
   <v>       0.39684232       0.26982435       0.00000000 </v>
   <v>       0.06350899       0.26982435       0.00000000 </v>
   <v>       0.37094724       0.41064640      -0.15457223 </v>
   <v>       0.03761391       0.41064640      -0.15457223 </v>
   <v>       0.03761391       0.07731307      -0.15457223 </v>
   <v>       0.37094724       0.07731307      -0.15457223 </v>
   <v>       0.00253935       0.20657296      -0.37079665 </v>
   <v>       0.33587268       0.20657296      -0.37079665 </v>
   <v>       0.16118393       0.04306059      -0.39352170 </v>
   <v>       0.16118393       0.37639393      -0.39352170 </v>
   <v>       0.25602027       0.29571943       0.15457223 </v>
   <v>       0.20224939      -0.42459715      -0.16816581 </v>
   <v>       0.20224939      -0.09126381      -0.16816581 </v>
   <v>      -0.13108394       0.24206952      -0.16816581 </v>
   <v>      -0.46441728       0.24206952      -0.16816581 </v>
   <v>       0.26311007       0.46932149       0.19686089 </v>
   <v>       0.26311007       0.13598816       0.19686089 </v>
   <v>      -0.46932149       0.40355659      -0.19686089 </v>
   <v>      -0.13598816       0.07022326      -0.19686089 </v>
   <v>      -0.13598816       0.40355659      -0.19686089 </v>
   <v>      -0.46932149       0.07022326      -0.19686089 </v>
   <v>       0.42459715       0.46441728       0.16816581 </v>
   <v>       0.42459715       0.13108394       0.16816581 </v>
   <v>       0.09126381       0.46441728       0.16816581 </v>
   <v>       0.09126381       0.13108394       0.16816581 </v>
   <v>       0.39684232      -0.39684232       0.00000000 </v>
   <v>       0.06350899      -0.39684232       0.00000000 </v>
   <v>       0.06350899      -0.06350899       0.00000000 </v>
   <v>       0.39684232      -0.06350899       0.00000000 </v>
   <v>       0.00253935      -0.46009370      -0.37079665 </v>
   <v>       0.33587268      -0.46009370      -0.37079665 </v>
   <v>       0.29027274       0.17130032       0.39352170 </v>
   <v>       0.00253935      -0.12676037      -0.37079665 </v>
   <v>       0.33587268      -0.12676037      -0.37079665 </v>
   <v>       0.49451727       0.04306059      -0.39352170 </v>
   <v>      -0.04306059       0.17214940       0.39352170 </v>
   <v>       0.49451727       0.37639393      -0.39352170 </v>
   <v>      -0.17214940       0.04306059      -0.39352170 </v>
   <v>      -0.17214940       0.37639393      -0.39352170 </v>
   <v>       0.12676037       0.33079399       0.37079665 </v>
   <v>       0.12676037      -0.00253935       0.37079665 </v>
   <v>       0.25602027      -0.37094724       0.15457223 </v>
   <v>      -0.41064640       0.29571943       0.15457223 </v>
   <v>      -0.07731307       0.29571943       0.15457223 </v>
   <v>       0.25602027      -0.03761391       0.15457223 </v>
   <v>      -0.46441728      -0.42459715      -0.16816581 </v>
   <v>      -0.13108394      -0.09126381      -0.16816581 </v>
   <v>      -0.13108394      -0.42459715      -0.16816581 </v>
   <v>      -0.46441728      -0.09126381      -0.16816581 </v>
   <v>      -0.40355659       0.46932149       0.19686089 </v>
   <v>      -0.07022326       0.13598816       0.19686089 </v>
   <v>      -0.07022326       0.46932149       0.19686089 </v>
   <v>      -0.40355659       0.13598816       0.19686089 </v>
   <v>       0.46009370       0.33079399       0.37079665 </v>
   <v>       0.19734517      -0.26311007      -0.19686089 </v>
   <v>       0.29027274      -0.49451727       0.39352170 </v>
   <v>      -0.26982435       0.26982435       0.00000000 </v>
   <v>       0.37094724      -0.25602027      -0.15457223 </v>
   <v>      -0.29571943       0.41064640      -0.15457223 </v>
   <v>       0.03761391      -0.25602027      -0.15457223 </v>
   <v>      -0.29571943       0.07731307      -0.15457223 </v>
   <v>       0.29027274      -0.16118393       0.39352170 </v>
   <v>      -0.33079399       0.20657296      -0.37079665 </v>
   <v>      -0.04306059      -0.16118393       0.39352170 </v>
   <v>       0.16118393      -0.29027274      -0.39352170 </v>
   <v>      -0.04306059      -0.49451727       0.39352170 </v>
   <v>      -0.20657296       0.33079399       0.37079665 </v>
   <v>      -0.20657296      -0.00253935       0.37079665 </v>
   <v>      -0.41064640      -0.37094724       0.15457223 </v>
   <v>       0.46009370      -0.00253935       0.37079665 </v>
   <v>      -0.07731307      -0.03761391       0.15457223 </v>
   <v>      -0.07731307      -0.37094724       0.15457223 </v>
   <v>      -0.41064640      -0.03761391       0.15457223 </v>
   <v>       0.26311007      -0.19734517       0.19686089 </v>
   <v>       0.12676037      -0.33587268       0.37079665 </v>
   <v>       0.46009370      -0.33587268       0.37079665 </v>
   <v>      -0.46932149      -0.26311007      -0.19686089 </v>
   <v>      -0.13598816      -0.26311007      -0.19686089 </v>
   <v>       0.42459715      -0.20224939       0.16816581 </v>
   <v>      -0.24206952       0.46441728       0.16816581 </v>
   <v>       0.09126381      -0.20224939       0.16816581 </v>
   <v>      -0.24206952       0.13108394       0.16816581 </v>
   <v>      -0.37639393       0.17214940       0.39352170 </v>
   <v>      -0.37639393      -0.49451727       0.39352170 </v>
   <v>      -0.26982435      -0.39684232       0.00000000 </v>
   <v>      -0.26982435      -0.06350899       0.00000000 </v>
   <v>      -0.33079399      -0.46009370      -0.37079665 </v>
   <v>      -0.33079399      -0.12676037      -0.37079665 </v>
   <v>       0.49451727      -0.29027274      -0.39352170 </v>
   <v>      -0.17214940      -0.29027274      -0.39352170 </v>
   <v>      -0.07022326      -0.19734517       0.19686089 </v>
   <v>      -0.40355659      -0.19734517       0.19686089 </v>
   <v>      -0.37639393      -0.16118393       0.39352170 </v>
   <v>      -0.29571943      -0.25602027      -0.15457223 </v>
   <v>      -0.20657296      -0.33587268       0.37079665 </v>
   <v>      -0.24206952      -0.20224939       0.16816581 </v>
  </varray>
 </structure>
 <varray name="primitive_index" >
  <v type="int" >        1 </v>
  <v type="int" >       31 </v>
  <v type="int" >       28 </v>
  <v type="int" >       56 </v>
  <v type="int" >       55 </v>
  <v type="int" >       86 </v>
  <v type="int" >       85 </v>
  <v type="int" >       82 </v>
  <v type="int" >       83 </v>
  <v type="int" >       37 </v>
  <v type="int" >       38 </v>
  <v type="int" >       73 </v>
  <v type="int" >       76 </v>
  <v type="int" >       91 </v>
  <v type="int" >        4 </v>
  <v type="int" >        7 </v>
  <v type="int" >        3 </v>
  <v type="int" >        2 </v>
  <v type="int" >       22 </v>
  <v type="int" >       19 </v>
  <v type="int" >       32 </v>
  <v type="int" >       30 </v>
  <v type="int" >       33 </v>
  <v type="int" >       29 </v>
  <v type="int" >       14 </v>
  <v type="int" >       11 </v>
  <v type="int" >       13 </v>
  <v type="int" >       10 </v>
  <v type="int" >       59 </v>
  <v type="int" >       58 </v>
  <v type="int" >       61 </v>
  <v type="int" >       62 </v>
  <v type="int" >       40 </v>
  <v type="int" >       41 </v>
  <v type="int" >       64 </v>
  <v type="int" >       43 </v>
  <v type="int" >       44 </v>
  <v type="int" >       74 </v>
  <v type="int" >       66 </v>
  <v type="int" >       77 </v>
  <v type="int" >       75 </v>
  <v type="int" >       78 </v>
  <v type="int" >       46 </v>
  <v type="int" >       52 </v>
  <v type="int" >       94 </v>
  <v type="int" >       92 </v>
  <v type="int" >       93 </v>
  <v type="int" >       97 </v>
  <v type="int" >        5 </v>
  <v type="int" >        9 </v>
  <v type="int" >        6 </v>
  <v type="int" >        8 </v>
  <v type="int" >       23 </v>
  <v type="int" >       21 </v>
  <v type="int" >       24 </v>
  <v type="int" >       20 </v>
  <v type="int" >       47 </v>
  <v type="int" >       34 </v>
  <v type="int" >       67 </v>
  <v type="int" >       57 </v>
  <v type="int" >       89 </v>
  <v type="int" >       87 </v>
  <v type="int" >       88 </v>
  <v type="int" >       84 </v>
  <v type="int" >       70 </v>
  <v type="int" >       39 </v>
  <v type="int" >       72 </v>
  <v type="int" >       79 </v>
  <v type="int" >       69 </v>
  <v type="int" >       48 </v>
  <v type="int" >       54 </v>
  <v type="int" >       95 </v>
  <v type="int" >       53 </v>
  <v type="int" >       99 </v>
  <v type="int" >       96 </v>
  <v type="int" >       98 </v>
  <v type="int" >       25 </v>
  <v type="int" >       49 </v>
  <v type="int" >       50 </v>
  <v type="int" >       35 </v>
  <v type="int" >       36 </v>
  <v type="int" >       17 </v>
  <v type="int" >       15 </v>
  <v type="int" >       16 </v>
  <v type="int" >       12 </v>
  <v type="int" >       65 </v>
  <v type="int" >       68 </v>
  <v type="int" >       60 </v>
  <v type="int" >       63 </v>
  <v type="int" >       42 </v>
  <v type="int" >       45 </v>
  <v type="int" >       80 </v>
  <v type="int" >       81 </v>
  <v type="int" >       27 </v>
  <v type="int" >       26 </v>
  <v type="int" >       71 </v>
  <v type="int" >       90 </v>
  <v type="int" >       51 </v>
  <v type="int" >       18 </v>
 </varray>
 <kpoints>
  <generation param="Gamma">
   <v type="int" name="divisions">       3        3        3 </v>
   <v name="usershift">      0.00000000       0.00000000       0.00000000 </v>
   <v name="genvec1">      0.33333333       0.00000000       0.00000000 </v>
   <v name="genvec2">      0.00000000       0.33333333       0.00000000 </v>
   <v name="genvec3">      0.00000000       0.00000000       0.33333333 </v>
   <v name="shift">      0.00000000       0.00000000       0.00000000 </v>
  </generation>
  <varray name="kpointlist" >
   <v>       0.00000000       0.00000000       0.00000000 </v>
   <v>       0.33333333      -0.00000000      -0.00000000 </v>
   <v>       0.00000000       0.33333333       0.00000000 </v>
   <v>       0.33333333       0.33333333       0.00000000 </v>
   <v>      -0.33333333       0.33333333       0.00000000 </v>
   <v>      -0.00000000      -0.00000000       0.33333333 </v>
   <v>       0.33333333      -0.00000000       0.33333333 </v>
   <v>      -0.33333333      -0.00000000       0.33333333 </v>
   <v>      -0.00000000       0.33333333       0.33333333 </v>
   <v>       0.33333333       0.33333333       0.33333333 </v>
   <v>      -0.33333333       0.33333333       0.33333333 </v>
   <v>      -0.00000000      -0.33333333       0.33333333 </v>
   <v>       0.33333333      -0.33333333       0.33333333 </v>
   <v>      -0.33333333      -0.33333333       0.33333333 </v>
  </varray>
  <varray name="weights" >
   <v>       0.03703704 </v>
   <v>       0.07407407 </v>
   <v>       0.07407407 </v>
   <v>       0.07407407 </v>
   <v>       0.07407407 </v>
   <v>       0.07407407 </v>
   <v>       0.07407407 </v>
   <v>       0.07407407 </v>
   <v>       0.07407407 </v>
   <v>       0.07407407 </v>
   <v>       0.07407407 </v>
   <v>       0.07407407 </v>
   <v>       0.07407407 </v>
   <v>       0.07407407 </v>
  </varray>
 </kpoints>
 <parameters>
  <separator name="general" >
   <i type="string" name="SYSTEM">unknown system</i>
   <i type="logical" name="LCOMPAT"> F  </i>
  </separator>
  <separator name="electronic" >
   <i type="string" name="PREC">accura</i>
   <i name="ENMAX">    650.00000000</i>
   <i name="ENAUG">    628.94500000</i>
   <i name="EDIFF">      0.00000100</i>
   <i type="int" name="IALGO">    38</i>
   <i type="int" name="IWAVPR">    10</i>
   <i type="int" name="NBANDS">   606</i>
   <i name="NELECT">    828.00000000</i>
   <i type="int" name="TURBO">     0</i>
   <i type="int" name="IRESTART">     0</i>
   <i type="int" name="NREBOOT">     0</i>
   <i type="int" name="NMIN">     0</i>
   <i name="EREF">      0.00000000</i>
   <separator name="electronic smearing" >
    <i type="int" name="ISMEAR">     0</i>
    <i name="SIGMA">      0.05000000</i>
    <i name="KSPACING">      0.50000000</i>
    <i type="logical" name="KGAMMA"> T  </i>
   </separator>
   <separator name="electronic projectors" >
    <i type="logical" name="LREAL"> F  </i>
    <v name="ROPT">      0.00000000      0.00000000      0.00000000      0.00000000</v>
    <i type="int" name="LMAXPAW">  -100</i>
    <i type="int" name="LMAXMIX">     4</i>
    <i type="logical" name="NLSPLINE"> F  </i>
   </separator>
   <separator name="electronic startup" >
    <i type="int" name="ISTART">     0</i>
    <i type="int" name="ICHARG">     1</i>
    <i type="int" name="INIWAV">     1</i>
   </separator>
   <separator name="electronic spin" >
    <i type="int" name="ISPIN">     2</i>
    <i type="logical" name="LNONCOLLINEAR"> F  </i>
    <v name="MAGMOM">      0.60000000      0.60000000      0.60000000      0.60000000      0.60000000      0.60000000      0.60000000      0.60000000      0.60000000      0.60000000      0.60000000      0.60000000      0.60000000      0.60000000      0.60000000      0.60000000      0.60000000      0.60000000      0.60000000      0.60000000
      0.60000000      0.60000000      0.60000000      0.60000000      0.60000000      0.60000000      0.60000000      0.60000000      0.60000000      0.60000000      0.60000000      0.60000000      0.60000000      0.60000000      0.60000000      0.60000000      0.60000000      0.60000000      0.60000000      0.60000000
      0.60000000      0.60000000      0.60000000      0.60000000      0.60000000      0.60000000      0.60000000      0.60000000      0.60000000      0.60000000      0.60000000      0.60000000      0.60000000      0.60000000      0.60000000      0.60000000      0.60000000      0.60000000      0.60000000      0.60000000
      0.60000000      0.60000000      0.60000000      5.00000000      5.00000000      5.00000000      5.00000000      5.00000000      5.00000000      5.00000000      5.00000000      5.00000000      5.00000000      5.00000000      5.00000000      5.00000000      5.00000000      5.00000000      5.00000000      5.00000000
      5.00000000      5.00000000      5.00000000      5.00000000      5.00000000      5.00000000      5.00000000      5.00000000      5.00000000      5.00000000      5.00000000      5.00000000      5.00000000      5.00000000      5.00000000      5.00000000      5.00000000      5.00000000      5.00000000</v>
    <i name="NUPDOWN">     -1.00000000</i>
    <i type="logical" name="LSORBIT"> F  </i>
    <v name="SAXIS">      0.00000000      0.00000000      1.00000000</v>
    <i type="logical" name="LSPIRAL"> F  </i>
    <v name="QSPIRAL">      0.00000000      0.00000000      0.00000000</v>
    <i type="logical" name="LZEROZ"> F  </i>
   </separator>
   <separator name="electronic exchange-correlation" >
    <i type="logical" name="LASPH"> T  </i>
    <i type="logical" name="LMETAGGA"> F  </i>
   </separator>
   <separator name="electronic convergence" >
    <i type="int" name="NELM">   200</i>
    <i type="int" name="NELMDL">     0</i>
    <i type="int" name="NELMIN">     8</i>
    <i name="ENINI">    650.00000000</i>
    <separator name="electronic convergence detail" >
     <i type="logical" name="LDIAG"> T  </i>
     <i type="logical" name="LSUBROT"> F  </i>
     <i name="WEIMIN">      0.00000000</i>
     <i name="EBREAK">      0.00000000</i>
     <i name="DEPER">      0.30000000</i>
     <i type="int" name="NRMM">     4</i>
     <i name="TIME">      0.40000000</i>
    </separator>
   </separator>
   <separator name="electronic mixer" >
    <i name="AMIX">      0.40000000</i>
    <i name="BMIX">      1.00000000</i>
    <i name="AMIN">      0.10000000</i>
    <i name="AMIX_MAG">      1.60000000</i>
    <i name="BMIX_MAG">      1.00000000</i>
    <separator name="electronic mixer details" >
     <i type="int" name="IMIX">     4</i>
     <i type="logical" name="MIXFIRST"> F  </i>
     <i type="int" name="MAXMIX">   -45</i>
     <i name="WC">    100.00000000</i>
     <i type="int" name="INIMIX">     1</i>
     <i type="int" name="MIXPRE">     1</i>
     <i type="int" name="MREMOVE">     5</i>
    </separator>
   </separator>
   <separator name="electronic dipolcorrection" >
    <i type="logical" name="LDIPOL"> F  </i>
    <i type="logical" name="LMONO"> F  </i>
    <i type="int" name="IDIPOL">     0</i>
    <i name="EPSILON">      1.00000000</i>
    <v name="DIPOL">   -100.00000000   -100.00000000   -100.00000000</v>
    <i name="EFIELD">      0.00000000</i>
   </separator>
  </separator>
  <separator name="grids" >
   <i type="int" name="NGX">    98</i>
   <i type="int" name="NGY">    98</i>
   <i type="int" name="NGZ">    90</i>
   <i type="int" name="NGXF">   196</i>
   <i type="int" name="NGYF">   196</i>
   <i type="int" name="NGZF">   180</i>
   <i type="logical" name="ADDGRID"> T  </i>
  </separator>
  <separator name="ionic" >
   <i type="int" name="NSW">     0</i>
   <i type="int" name="IBRION">    -1</i>
   <i type="int" name="MDALGO">     0</i>
   <i type="int" name="ISIF">     2</i>
   <i name="PSTRESS">      0.00000000</i>
   <i name="EDIFFG">      0.00001000</i>
   <i type="int" name="NFREE">     0</i>
   <i name="POTIM">      0.50000000</i>
   <i name="SMASS">     -3.00000000</i>
   <i name="SCALEE">      1.00000000</i>
  </separator>
  <separator name="ionic md" >
   <i name="TEBEG">      0.00010000</i>
   <i name="TEEND">      0.00010000</i>
   <i type="int" name="NBLOCK">     1</i>
   <i type="int" name="KBLOCK">     1</i>
   <i type="int" name="NPACO">   256</i>
   <i name="APACO">     16.00000000</i>
  </separator>
  <separator name="symmetry" >
   <i type="int" name="ISYM">     0</i>
   <i name="SYMPREC">      0.00001000</i>
  </separator>
  <separator name="dos" >
   <i type="int" name="LORBIT">     0</i>
   <v name="RWIGS">     -1.00000000     -1.00000000     -1.00000000     -1.00000000</v>
   <i type="int" name="NEDOS">   301</i>
   <i name="EMIN">     10.00000000</i>
   <i name="EMAX">    -10.00000000</i>
   <i name="EFERMI">      0.00000000</i>
  </separator>
  <separator name="writing" >
   <i type="int" name="NWRITE">     1</i>
   <i type="logical" name="LWAVE"> F  </i>
   <i type="logical" name="LDOWNSAMPLE"> F  </i>
   <i type="logical" name="LCHARG"> T  </i>
   <i type="logical" name="LPARD"> F  </i>
   <i type="logical" name="LVTOT"> F  </i>
   <i type="logical" name="LVHAR"> F  </i>
   <i type="logical" name="LELF"> F  </i>
   <i type="logical" name="LOPTICS"> F  </i>
   <v name="STM">      0.00000000      0.00000000      0.00000000      0.00000000      0.00000000      0.00000000      0.00000000</v>
  </separator>
  <separator name="performance" >
   <i type="int" name="NPAR">     2</i>
   <i type="int" name="NSIM">     4</i>
   <i type="int" name="NBLK">    -1</i>
   <i type="logical" name="LPLANE"> T  </i>
   <i type="logical" name="LSCALAPACK"> T  </i>
   <i type="logical" name="LSCAAWARE"> F  </i>
   <i type="logical" name="LSCALU"> F  </i>
   <i type="logical" name="LASYNC"> F  </i>
   <i type="logical" name="LORBITALREAL"> F  </i>
  </separator>
  <separator name="miscellaneous" >
   <i type="int" name="IDIOT">     3</i>
   <i type="int" name="ISPECIAL">     0</i>
   <i type="logical" name="LMUSIC"> F  </i>
   <v name="POMASS">      7.01000000     16.00000000     32.06600000     55.84700000</v>
   <v name="DARWINR">      0.00000000      0.00000000      0.00000000      0.00000000</v>
   <v name="DARWINV">      1.00000000      1.00000000      1.00000000      1.00000000</v>
   <i type="logical" name="LCORR"> T  </i>
  </separator>
  <i type="logical" name="GGA_COMPAT"> T  </i>
  <i type="logical" name="LBERRY"> F  </i>
  <i type="int" name="ICORELEVEL">     0</i>
  <i type="logical" name="LDAU"> T  </i>
  <v type="int" name="LDAUTYPE">     2</v>
  <v type="int" name="LDAUL">    -1</v>
  <v name="LDAUU">      0.00000000</v>
  <v name="LDAUJ">      0.00000000</v>
  <i type="int" name="LDAUPRINT">     0</i>
  <i type="int" name="I_CONSTRAINED_M">     0</i>
  <separator name="electronic exchange-correlation" >
   <i type="string" name="GGA">PE</i>
   <i type="int" name="VOSKOWN">     0</i>
   <i type="logical" name="LHFCALC"> F  </i>
   <i type="string" name="PRECFOCK"></i>
   <i type="logical" name="LSYMGRAD"> F  </i>
   <i type="logical" name="LHFONE"> F  </i>
   <i type="logical" name="LRHFCALC"> F  </i>
   <i type="logical" name="LTHOMAS"> F  </i>
   <i type="logical" name="LMODELHF"> F  </i>
   <i name="ENCUT4O">     -1.00000000</i>
   <i type="int" name="EXXOEP">     0</i>
   <i type="int" name="FOURORBIT">     0</i>
   <i name="AEXX">      0.00000000</i>
   <i name="HFALPHA">      0.00000000</i>
   <i name="MCALPHA">      0.00000000</i>
   <i name="ALDAX">      1.00000000</i>
   <i name="AGGAX">      1.00000000</i>
   <i name="ALDAC">      1.00000000</i>
   <i name="AGGAC">      1.00000000</i>
   <i type="int" name="NKREDX">     1</i>
   <i type="int" name="NKREDY">     1</i>
   <i type="int" name="NKREDZ">     1</i>
   <i type="logical" name="SHIFTRED"> F  </i>
   <i type="logical" name="ODDONLY"> F  </i>
   <i type="logical" name="EVENONLY"> F  </i>
   <i type="int" name="LMAXFOCK">     0</i>
   <i type="int" name="NMAXFOCKAE">     0</i>
   <i type="logical" name="LFOCKAEDFT"> F  </i>
   <i name="HFSCREEN">      0.00000000</i>
   <i name="HFSCREENC">      0.00000000</i>
   <i type="int" name="NBANDSGWLOW">     0</i>
  </separator>
  <separator name="vdW DFT" >
   <i type="logical" name="LUSE_VDW"> F  </i>
   <i name="Zab_VDW">     -0.84910000</i>
   <i name="PARAM1">      0.12340000</i>
   <i name="PARAM2">      1.00000000</i>
   <i name="PARAM3">      0.00000000</i>
  </separator>
  <separator name="model GW" >
   <i type="int" name="MODEL_GW">     0</i>
   <i name="MODEL_EPS0">      8.58245767</i>
   <i name="MODEL_ALPHA">      1.00000000</i>
  </separator>
  <separator name="linear response parameters" >
   <i type="logical" name="LEPSILON"> F  </i>
   <i type="logical" name="LRPA"> F  </i>
   <i type="logical" name="LNABLA"> F  </i>
   <i type="logical" name="LVEL"> F  </i>
   <i type="int" name="KINTER">     0</i>
   <i name="CSHIFT">      0.10000000</i>
   <i name="OMEGAMAX">     -1.00000000</i>
   <i name="DEG_THRESHOLD">      0.00200000</i>
   <i name="RTIME">     -0.10000000</i>
   <i name="WPLASMAI">      0.00000000</i>
   <v name="DFIELD">      0.00000000      0.00000000      0.00000000</v>
   <v name="WPLASMA">      0.00000000      0.00000000      0.00000000      0.00000000      0.00000000      0.00000000      0.00000000      0.00000000      0.00000000</v>
  </separator>
  <separator name="orbital magnetization" >
   <i type="logical" name="NUCIND"> F  </i>
   <v name="MAGPOS">      0.00000000      0.00000000      0.00000000</v>
   <i type="logical" name="LNICSALL"> T  </i>
   <i type="logical" name="ORBITALMAG"> F  </i>
   <i type="logical" name="LMAGBLOCH"> F  </i>
   <i type="logical" name="LCHIMAG"> F  </i>
   <i type="logical" name="LGAUGE"> T  </i>
   <i type="int" name="MAGATOM">     0</i>
   <v name="MAGDIPOL">      0.00000000      0.00000000      0.00000000</v>
   <v name="AVECCONST">      0.00000000      0.00000000      0.00000000</v>
  </separator>
  <separator name="response functions" >
   <i type="logical" name="LADDER"> F  </i>
   <i type="logical" name="LRPAFORCE"> F  </i>
   <i type="logical" name="LFXC"> F  </i>
   <i type="logical" name="LHARTREE"> T  </i>
   <i type="int" name="IBSE">     0</i>
   <v type="int" name="KPOINT">    -1     0     0     0</v>
   <i type="logical" name="LTCTE"> F  </i>
   <i type="logical" name="LTETE"> F  </i>
   <i type="logical" name="LTRIPLET"> F  </i>
   <i type="logical" name="LFXCEPS"> F  </i>
   <i type="logical" name="LFXHEG"> F  </i>
   <i type="int" name="NATURALO">     2</i>
   <i type="logical" name="L2ORDER"> F  </i>
   <i type="logical" name="LMP2LT"> F  </i>
   <i type="logical" name="LUSEW"> F  </i>
   <i name="ENCUTGW">     -2.00000000</i>
   <i name="ENCUTGWSOFT">     -2.00000000</i>
   <i name="ENCUTLF">     -1.00000000</i>
   <i type="int" name="LMAXMP2">    -1</i>
   <i name="SCISSOR">      0.00000000</i>
   <i type="int" name="NOMEGA">     0</i>
   <i type="int" name="NOMEGAR">     0</i>
   <i type="int" name="NBANDSGW">    -1</i>
   <i type="int" name="NBANDSO">    -1</i>
   <i type="int" name="NBANDSV">    -1</i>
   <i type="int" name="NELM">   200</i>
   <i type="int" name="NELMHF">     1</i>
   <i type="int" name="DIM">     3</i>
   <i type="int" name="ANTIRES">     0</i>
   <i name="OMEGAMAX">    -30.00000000</i>
   <i name="OMEGAMIN">    -30.00000000</i>
   <i name="OMEGATL">   -200.00000000</i>
   <i type="int" name="OMEGAGRID">   140</i>
   <i name="CSHIFT">     -0.10000000</i>
   <i type="logical" name="SELFENERGY"> F  </i>
   <i type="logical" name="LSPECTRAL"> F  </i>
   <i type="logical" name="LSPECTRALGW"> F  </i>
   <i type="logical" name="LSINGLES"> F  </i>
   <i type="logical" name="LFERMIGW"> F  </i>
   <i type="logical" name="ODDONLYGW"> F  </i>
   <i type="logical" name="EVENONLYGW"> F  </i>
   <i type="int" name="NKREDLFX">     1</i>
   <i type="int" name="NKREDLFY">     1</i>
   <i type="int" name="NKREDLFZ">     1</i>
   <i type="int" name="MAXMEM">  2800</i>
   <i type="int" name="TELESCOPE">     0</i>
   <i type="int" name="TAUPAR">     1</i>
   <i type="int" name="OMEGAPAR">    -1</i>
   <i name="LAMBDA">      1.00000000</i>
  </separator>
  <separator name="External order field" >
   <i name="OFIELD_KAPPA">      0.00000000</i>
   <v name="OFIELD_K">      0.00000000      0.00000000      0.00000000</v>
   <i name="OFIELD_Q6_NEAR">      0.00000000</i>
   <i name="OFIELD_Q6_FAR">      0.00000000</i>
   <i name="OFIELD_A">      0.00000000</i>
  </separator>
 </parameters>
 <atominfo>
  <atoms>      99 </atoms>
  <types>       4 </types>
  <array name="atoms" >
   <dimension dim="1">ion</dimension>
   <field type="string">element</field>
   <field type="int">atomtype</field>
   <set>
    <rc><c>Li</c><c>   1</c></rc>
    <rc><c>Li</c><c>   1</c></rc>
    <rc><c>Li</c><c>   1</c></rc>
    <rc><c>Li</c><c>   1</c></rc>
    <rc><c>Li</c><c>   1</c></rc>
    <rc><c>Li</c><c>   1</c></rc>
    <rc><c>Li</c><c>   1</c></rc>
    <rc><c>Li</c><c>   1</c></rc>
    <rc><c>Li</c><c>   1</c></rc>
    <rc><c>Li</c><c>   1</c></rc>
    <rc><c>Li</c><c>   1</c></rc>
    <rc><c>Li</c><c>   1</c></rc>
    <rc><c>Li</c><c>   1</c></rc>
    <rc><c>Li</c><c>   1</c></rc>
    <rc><c>Li</c><c>   1</c></rc>
    <rc><c>Li</c><c>   1</c></rc>
    <rc><c>Li</c><c>   1</c></rc>
    <rc><c>Li</c><c>   1</c></rc>
    <rc><c>O </c><c>   2</c></rc>
    <rc><c>O </c><c>   2</c></rc>
    <rc><c>O </c><c>   2</c></rc>
    <rc><c>O </c><c>   2</c></rc>
    <rc><c>O </c><c>   2</c></rc>
    <rc><c>O </c><c>   2</c></rc>
    <rc><c>O </c><c>   2</c></rc>
    <rc><c>O </c><c>   2</c></rc>
    <rc><c>O </c><c>   2</c></rc>
    <rc><c>O </c><c>   2</c></rc>
    <rc><c>O </c><c>   2</c></rc>
    <rc><c>O </c><c>   2</c></rc>
    <rc><c>O </c><c>   2</c></rc>
    <rc><c>O </c><c>   2</c></rc>
    <rc><c>O </c><c>   2</c></rc>
    <rc><c>O </c><c>   2</c></rc>
    <rc><c>O </c><c>   2</c></rc>
    <rc><c>O </c><c>   2</c></rc>
    <rc><c>S </c><c>   3</c></rc>
    <rc><c>S </c><c>   3</c></rc>
    <rc><c>S </c><c>   3</c></rc>
    <rc><c>S </c><c>   3</c></rc>
    <rc><c>S </c><c>   3</c></rc>
    <rc><c>S </c><c>   3</c></rc>
    <rc><c>S </c><c>   3</c></rc>
    <rc><c>S </c><c>   3</c></rc>
    <rc><c>S </c><c>   3</c></rc>
    <rc><c>S </c><c>   3</c></rc>
    <rc><c>S </c><c>   3</c></rc>
    <rc><c>S </c><c>   3</c></rc>
    <rc><c>S </c><c>   3</c></rc>
    <rc><c>S </c><c>   3</c></rc>
    <rc><c>S </c><c>   3</c></rc>
    <rc><c>S </c><c>   3</c></rc>
    <rc><c>S </c><c>   3</c></rc>
    <rc><c>S </c><c>   3</c></rc>
    <rc><c>S </c><c>   3</c></rc>
    <rc><c>S </c><c>   3</c></rc>
    <rc><c>S </c><c>   3</c></rc>
    <rc><c>S </c><c>   3</c></rc>
    <rc><c>S </c><c>   3</c></rc>
    <rc><c>S </c><c>   3</c></rc>
    <rc><c>S </c><c>   3</c></rc>
    <rc><c>S </c><c>   3</c></rc>
    <rc><c>S </c><c>   3</c></rc>
    <rc><c>Fe</c><c>   4</c></rc>
    <rc><c>Fe</c><c>   4</c></rc>
    <rc><c>Fe</c><c>   4</c></rc>
    <rc><c>Fe</c><c>   4</c></rc>
    <rc><c>Fe</c><c>   4</c></rc>
    <rc><c>Fe</c><c>   4</c></rc>
    <rc><c>Fe</c><c>   4</c></rc>
    <rc><c>Fe</c><c>   4</c></rc>
    <rc><c>Fe</c><c>   4</c></rc>
    <rc><c>Fe</c><c>   4</c></rc>
    <rc><c>Fe</c><c>   4</c></rc>
    <rc><c>Fe</c><c>   4</c></rc>
    <rc><c>Fe</c><c>   4</c></rc>
    <rc><c>Fe</c><c>   4</c></rc>
    <rc><c>Fe</c><c>   4</c></rc>
    <rc><c>Fe</c><c>   4</c></rc>
    <rc><c>Fe</c><c>   4</c></rc>
    <rc><c>Fe</c><c>   4</c></rc>
    <rc><c>Fe</c><c>   4</c></rc>
    <rc><c>Fe</c><c>   4</c></rc>
    <rc><c>Fe</c><c>   4</c></rc>
    <rc><c>Fe</c><c>   4</c></rc>
    <rc><c>Fe</c><c>   4</c></rc>
    <rc><c>Fe</c><c>   4</c></rc>
    <rc><c>Fe</c><c>   4</c></rc>
    <rc><c>Fe</c><c>   4</c></rc>
    <rc><c>Fe</c><c>   4</c></rc>
    <rc><c>Fe</c><c>   4</c></rc>
    <rc><c>Fe</c><c>   4</c></rc>
    <rc><c>Fe</c><c>   4</c></rc>
    <rc><c>Fe</c><c>   4</c></rc>
    <rc><c>Fe</c><c>   4</c></rc>
    <rc><c>Fe</c><c>   4</c></rc>
    <rc><c>Fe</c><c>   4</c></rc>
    <rc><c>Fe</c><c>   4</c></rc>
    <rc><c>Fe</c><c>   4</c></rc>
   </set>
  </array>
  <array name="atomtypes" >
   <dimension dim="1">type</dimension>
   <field type="int">atomspertype</field>
   <field type="string">element</field>
   <field>mass</field>
   <field>valence</field>
   <field type="string">pseudopotential</field>
   <set>
    <rc><c>  18</c><c>Li</c><c>      7.01000000</c><c>      3.00000000</c><c>  PAW_PBE Li_sv 10Sep2004               </c></rc>
    <rc><c>  18</c><c>O </c><c>     16.00000000</c><c>      6.00000000</c><c>  PAW_PBE O 08Apr2002                   </c></rc>
    <rc><c>  27</c><c>S </c><c>     32.06600000</c><c>      6.00000000</c><c>  PAW_PBE S 06Sep2000                   </c></rc>
    <rc><c>  36</c><c>Fe</c><c>     55.84700000</c><c>     14.00000000</c><c>  PAW_PBE Fe_pv 02Aug2007               </c></rc>
   </set>
  </array>
 </atominfo>
 <structure name="initialpos" >
  <crystal>
   <varray name="basis" >
    <v>      11.77726974       0.00848871       0.06923316 </v>
    <v>      -0.03028248      11.77723386       0.06923316 </v>
    <v>      -2.02000231      -2.02666320      10.18574622 </v>
   </varray>
   <i name="volume">   1416.10551572 </i>
   <varray name="rec_basis" >
    <v>       0.08481023       0.00011906       0.01684296 </v>
    <v>      -0.00016014       0.08481016       0.01684296 </v>
    <v>      -0.00057537      -0.00057727       0.09794744 </v>
   </varray>
  </crystal>
  <varray name="positions" >
   <v>       0.20224939       0.24206952       0.83183419 </v>
   <v>       0.53558272       0.24206952       0.83183419 </v>
   <v>       0.86891606       0.24206952       0.83183419 </v>
   <v>       0.20224939       0.57540285       0.83183419 </v>
   <v>       0.53558272       0.57540285       0.83183419 </v>
   <v>       0.86891606       0.57540285       0.83183419 </v>
   <v>       0.20224939       0.90873619       0.83183419 </v>
   <v>       0.53558272       0.90873619       0.83183419 </v>
   <v>       0.86891606       0.90873619       0.83183419 </v>
   <v>       0.09126381       0.13108394       0.16816581 </v>
   <v>       0.42459715       0.13108394       0.16816581 </v>
   <v>       0.75793048       0.13108394       0.16816581 </v>
   <v>       0.09126381       0.46441728       0.16816581 </v>
   <v>       0.42459715       0.46441728       0.16816581 </v>
   <v>       0.75793048       0.46441728       0.16816581 </v>
   <v>       0.09126381       0.79775061       0.16816581 </v>
   <v>       0.42459715       0.79775061       0.16816581 </v>
   <v>       0.75793048       0.79775061       0.16816581 </v>
   <v>       0.26311007       0.13598816       0.19686089 </v>
   <v>       0.59644341       0.13598816       0.19686089 </v>
   <v>       0.92977674       0.13598816       0.19686089 </v>
   <v>       0.26311007       0.46932149       0.19686089 </v>
   <v>       0.59644341       0.46932149       0.19686089 </v>
   <v>       0.92977674       0.46932149       0.19686089 </v>
   <v>       0.26311007       0.80265483       0.19686089 </v>
   <v>       0.59644341       0.80265483       0.19686089 </v>
   <v>       0.92977674       0.80265483       0.19686089 </v>
   <v>       0.19734517       0.07022326       0.80313911 </v>
   <v>       0.53067851       0.07022326       0.80313911 </v>
   <v>       0.86401184       0.07022326       0.80313911 </v>
   <v>       0.19734517       0.40355659       0.80313911 </v>
   <v>       0.53067851       0.40355659       0.80313911 </v>
   <v>       0.86401184       0.40355659       0.80313911 </v>
   <v>       0.19734517       0.73688993       0.80313911 </v>
   <v>       0.53067851       0.73688993       0.80313911 </v>
   <v>       0.86401184       0.73688993       0.80313911 </v>
   <v>       0.00253935       0.20657296       0.62920335 </v>
   <v>       0.33587268       0.20657296       0.62920335 </v>
   <v>       0.66920601       0.20657296       0.62920335 </v>
   <v>       0.00253935       0.53990630       0.62920335 </v>
   <v>       0.33587268       0.53990630       0.62920335 </v>
   <v>       0.66920601       0.53990630       0.62920335 </v>
   <v>       0.00253935       0.87323963       0.62920335 </v>
   <v>       0.33587268       0.87323963       0.62920335 </v>
   <v>       0.66920601       0.87323963       0.62920335 </v>
   <v>       0.12676037       0.33079399       0.37079665 </v>
   <v>       0.46009370       0.33079399       0.37079665 </v>
   <v>       0.79342704       0.33079399       0.37079665 </v>
   <v>       0.12676037       0.66412732       0.37079665 </v>
   <v>       0.46009370       0.66412732       0.37079665 </v>
   <v>       0.79342704       0.66412732       0.37079665 </v>
   <v>       0.12676037       0.99746065       0.37079665 </v>
   <v>       0.46009370       0.99746065       0.37079665 </v>
   <v>       0.79342704       0.99746065       0.37079665 </v>
   <v>       0.06350899       0.26982435       0.00000000 </v>
   <v>       0.39684232       0.26982435       0.00000000 </v>
   <v>       0.73017565       0.26982435       0.00000000 </v>
   <v>       0.06350899       0.60315768       0.00000000 </v>
   <v>       0.39684232       0.60315768       0.00000000 </v>
   <v>       0.73017565       0.60315768       0.00000000 </v>
   <v>       0.06350899       0.93649101       0.00000000 </v>
   <v>       0.39684232       0.93649101       0.00000000 </v>
   <v>       0.73017565       0.93649101       0.00000000 </v>
   <v>       0.29027274       0.17130032       0.39352170 </v>
   <v>       0.62360607       0.17214940       0.39352170 </v>
   <v>       0.95693941       0.17214940       0.39352170 </v>
   <v>       0.29027274       0.50548273       0.39352170 </v>
   <v>       0.62360607       0.50548273       0.39352170 </v>
   <v>       0.95693941       0.50548273       0.39352170 </v>
   <v>       0.29027274       0.83881607       0.39352170 </v>
   <v>       0.62360607       0.83881607       0.39352170 </v>
   <v>       0.95693941       0.83881607       0.39352170 </v>
   <v>       0.16118393       0.04306059       0.60647830 </v>
   <v>       0.49451727       0.04306059       0.60647830 </v>
   <v>       0.82785060       0.04306059       0.60647830 </v>
   <v>       0.16118393       0.37639393       0.60647830 </v>
   <v>       0.49451727       0.37639393       0.60647830 </v>
   <v>       0.82785060       0.37639393       0.60647830 </v>
   <v>       0.16118393       0.70972726       0.60647830 </v>
   <v>       0.49451727       0.70972726       0.60647830 </v>
   <v>       0.82785060       0.70972726       0.60647830 </v>
   <v>       0.03761391       0.07731307       0.84542777 </v>
   <v>       0.37094724       0.07731307       0.84542777 </v>
   <v>       0.70428057       0.07731307       0.84542777 </v>
   <v>       0.03761391       0.41064640       0.84542777 </v>
   <v>       0.37094724       0.41064640       0.84542777 </v>
   <v>       0.70428057       0.41064640       0.84542777 </v>
   <v>       0.03761391       0.74397973       0.84542777 </v>
   <v>       0.37094724       0.74397973       0.84542777 </v>
   <v>       0.70428057       0.74397973       0.84542777 </v>
   <v>       0.25602027       0.29571943       0.15457223 </v>
   <v>       0.58935360       0.29571943       0.15457223 </v>
   <v>       0.92268693       0.29571943       0.15457223 </v>
   <v>       0.25602027       0.62905276       0.15457223 </v>
   <v>       0.58935360       0.62905276       0.15457223 </v>
   <v>       0.92268693       0.62905276       0.15457223 </v>
   <v>       0.25602027       0.96238609       0.15457223 </v>
   <v>       0.58935360       0.96238609       0.15457223 </v>
   <v>       0.92268693       0.96238609       0.15457223 </v>
  </varray>
 </structure>
 <calculation>
  <scstep>
   <time name="dav">  440.48  444.88</time>
   <time name="total">  444.20  448.68</time>
   <energy>
    <i name="alphaZ">   2606.24521607 </i>
    <i name="ewald"> -65007.72092866 </i>
    <i name="hartreedc"> -34081.89794712 </i>
    <i name="XCdc">   3632.83730078 </i>
    <i name="pawpsdc"> 104149.30743192 </i>
    <i name="pawaedc">-107360.85880398 </i>
    <i name="eentropy">     -0.01794626 </i>
    <i name="bandstr">    394.23440746 </i>
    <i name="atom"> 107373.91467324 </i>
    <i name="e_fr_energy">  11706.04340345 </i>
    <i name="e_wo_entrp">  11706.06134972 </i>
    <i name="e_0_energy">  11706.05237659 </i>
   </energy>
  </scstep>
  <scstep>
   <time name="dav">  431.43  435.77</time>
   <time name="total">  431.44  435.78</time>
   <energy>
    <i name="e_fr_energy">   1328.70798001 </i>
    <i name="e_wo_entrp">   1328.77536928 </i>
    <i name="e_0_energy">   1328.74167465 </i>
   </energy>
  </scstep>
  <scstep>
   <time name="dav">  455.35  459.52</time>
   <time name="total">  455.35  459.53</time>
   <energy>
    <i name="e_fr_energy">   -345.60535831 </i>
    <i name="e_wo_entrp">   -345.60535831 </i>
    <i name="e_0_energy">   -345.60535831 </i>
   </energy>
  </scstep>
  <scstep>
   <time name="dav">  488.68  493.36</time>
   <time name="total">  488.68  493.37</time>
   <energy>
    <i name="e_fr_energy">   -535.88950779 </i>
    <i name="e_wo_entrp">   -535.88950779 </i>
    <i name="e_0_energy">   -535.88950779 </i>
   </energy>
  </scstep>
  <scstep>
   <time name="dav">  638.85  645.07</time>
   <time name="total">  651.28  657.55</time>
   <energy>
    <i name="e_fr_energy">   -549.79197108 </i>
    <i name="e_wo_entrp">   -549.79197108 </i>
    <i name="e_0_energy">   -549.79197108 </i>
   </energy>
  </scstep>
  <scstep>
   <time name="dav">  573.25  578.42</time>
   <time name="total">  589.10  594.48</time>
   <energy>
    <i name="e_fr_energy">   -550.32209946 </i>
    <i name="e_wo_entrp">   -550.32209946 </i>
    <i name="e_0_energy">   -550.32209946 </i>
   </energy>
  </scstep>
  <scstep>
   <time name="dav">  600.17  606.19</time>
   <time name="total">  615.85  621.93</time>
   <energy>
    <i name="e_fr_energy">   -550.34124906 </i>
    <i name="e_wo_entrp">   -550.34124906 </i>
    <i name="e_0_energy">   -550.34124906 </i>
   </energy>
  </scstep>
  <scstep>
   <time name="dav">  578.23  583.77</time>
   <time name="total">  593.98  599.80</time>
   <energy>
    <i name="e_fr_energy">   -550.34083019 </i>
    <i name="e_wo_entrp">   -550.34083019 </i>
    <i name="e_0_energy">   -550.34083019 </i>
   </energy>
  </scstep>
  <scstep>
   <time name="dav">  633.61  639.97</time>
   <time name="total">  649.44  656.02</time>
   <energy>
    <i name="e_fr_energy">   -550.34017598 </i>
    <i name="e_wo_entrp">   -550.34017598 </i>
    <i name="e_0_energy">   -550.34017598 </i>
   </energy>
  </scstep>
  <scstep>
   <time name="dav">  636.17  642.00</time>
   <time name="total">  651.90  657.92</time>
   <energy>
    <i name="e_fr_energy">   -550.33909857 </i>
    <i name="e_wo_entrp">   -550.33909857 </i>
    <i name="e_0_energy">   -550.33909857 </i>
   </energy>
  </scstep>
  <scstep>
   <time name="dav">  515.11  520.29</time>
   <time name="total">  530.80  536.18</time>
   <energy>
    <i name="e_fr_energy">   -550.33918394 </i>
    <i name="e_wo_entrp">   -550.33918394 </i>
    <i name="e_0_energy">   -550.33918394 </i>
   </energy>
  </scstep>
  <scstep>
   <time name="dav">  562.67  568.51</time>
   <time name="total">  578.56  584.56</time>
   <energy>
    <i name="e_fr_energy">   -550.33917667 </i>
    <i name="e_wo_entrp">   -550.33917667 </i>
    <i name="e_0_energy">   -550.33917667 </i>
   </energy>
  </scstep>
  <scstep>
   <time name="dav">  490.83  495.28</time>
   <time name="total">  506.55  511.24</time>
   <energy>
    <i name="e_fr_energy">   -550.33915772 </i>
    <i name="e_wo_entrp">   -550.33915772 </i>
    <i name="e_0_energy">   -550.33915772 </i>
   </energy>
  </scstep>
  <scstep>
   <time name="dav">  452.93  457.95</time>
   <time name="total">  468.72  474.04</time>
   <energy>
    <i name="e_fr_energy">   -550.33916404 </i>
    <i name="e_wo_entrp">   -550.33916404 </i>
    <i name="e_0_energy">   -550.33916404 </i>
   </energy>
  </scstep>
  <scstep>
   <time name="dav">  450.29  454.42</time>
   <time name="total">  466.02  470.32</time>
   <energy>
    <i name="e_fr_energy">   -550.33916210 </i>
    <i name="e_wo_entrp">   -550.33916210 </i>
    <i name="e_0_energy">   -550.33916210 </i>
   </energy>
  </scstep>
  <scstep>
   <time name="dav">  318.67  321.67</time>
   <time name="total">  322.43  325.44</time>
   <energy>
    <i name="alphaZ">   2606.24521607 </i>
    <i name="ewald"> -65007.72092866 </i>
    <i name="hartreedc"> -34081.89267616 </i>
    <i name="XCdc">   3632.83721480 </i>
    <i name="pawpsdc"> 104148.69068893 </i>
    <i name="pawaedc">-107360.23704757 </i>
    <i name="eentropy">     -0.00000000 </i>
    <i name="bandstr"> -11862.17630285 </i>
    <i name="atom"> 107373.91467324 </i>
    <i name="e_fr_energy">   -550.33916219 </i>
    <i name="e_wo_entrp">   -550.33916219 </i>
    <i name="e_0_energy">   -550.33916219 </i>
   </energy>
  </scstep>
  <structure>
   <crystal>
    <varray name="basis" >
     <v>      11.77726974       0.00848871       0.06923316 </v>
     <v>      -0.03028248      11.77723386       0.06923316 </v>
     <v>      -2.02000231      -2.02666320      10.18574622 </v>
    </varray>
    <i name="volume">   1416.10551572 </i>
    <varray name="rec_basis" >
     <v>       0.08481023       0.00011906       0.01684296 </v>
     <v>      -0.00016014       0.08481016       0.01684296 </v>
     <v>      -0.00057537      -0.00057727       0.09794744 </v>
    </varray>
   </crystal>
   <varray name="positions" >
    <v>       0.20224939       0.24206952       0.83183419 </v>
    <v>       0.53558272       0.24206952       0.83183419 </v>
    <v>       0.86891606       0.24206952       0.83183419 </v>
    <v>       0.20224939       0.57540285       0.83183419 </v>
    <v>       0.53558272       0.57540285       0.83183419 </v>
    <v>       0.86891606       0.57540285       0.83183419 </v>
    <v>       0.20224939       0.90873619       0.83183419 </v>
    <v>       0.53558272       0.90873619       0.83183419 </v>
    <v>       0.86891606       0.90873619       0.83183419 </v>
    <v>       0.09126381       0.13108394       0.16816581 </v>
    <v>       0.42459715       0.13108394       0.16816581 </v>
    <v>       0.75793048       0.13108394       0.16816581 </v>
    <v>       0.09126381       0.46441728       0.16816581 </v>
    <v>       0.42459715       0.46441728       0.16816581 </v>
    <v>       0.75793048       0.46441728       0.16816581 </v>
    <v>       0.09126381       0.79775061       0.16816581 </v>
    <v>       0.42459715       0.79775061       0.16816581 </v>
    <v>       0.75793048       0.79775061       0.16816581 </v>
    <v>       0.26311007       0.13598816       0.19686089 </v>
    <v>       0.59644341       0.13598816       0.19686089 </v>
    <v>       0.92977674       0.13598816       0.19686089 </v>
    <v>       0.26311007       0.46932149       0.19686089 </v>
    <v>       0.59644341       0.46932149       0.19686089 </v>
    <v>       0.92977674       0.46932149       0.19686089 </v>
    <v>       0.26311007       0.80265483       0.19686089 </v>
    <v>       0.59644341       0.80265483       0.19686089 </v>
    <v>       0.92977674       0.80265483       0.19686089 </v>
    <v>       0.19734517       0.07022326       0.80313911 </v>
    <v>       0.53067851       0.07022326       0.80313911 </v>
    <v>       0.86401184       0.07022326       0.80313911 </v>
    <v>       0.19734517       0.40355659       0.80313911 </v>
    <v>       0.53067851       0.40355659       0.80313911 </v>
    <v>       0.86401184       0.40355659       0.80313911 </v>
    <v>       0.19734517       0.73688993       0.80313911 </v>
    <v>       0.53067851       0.73688993       0.80313911 </v>
    <v>       0.86401184       0.73688993       0.80313911 </v>
    <v>       0.00253935       0.20657296       0.62920335 </v>
    <v>       0.33587268       0.20657296       0.62920335 </v>
    <v>       0.66920601       0.20657296       0.62920335 </v>
    <v>       0.00253935       0.53990630       0.62920335 </v>
    <v>       0.33587268       0.53990630       0.62920335 </v>
    <v>       0.66920601       0.53990630       0.62920335 </v>
    <v>       0.00253935       0.87323963       0.62920335 </v>
    <v>       0.33587268       0.87323963       0.62920335 </v>
    <v>       0.66920601       0.87323963       0.62920335 </v>
    <v>       0.12676037       0.33079399       0.37079665 </v>
    <v>       0.46009370       0.33079399       0.37079665 </v>
    <v>       0.79342704       0.33079399       0.37079665 </v>
    <v>       0.12676037       0.66412732       0.37079665 </v>
    <v>       0.46009370       0.66412732       0.37079665 </v>
    <v>       0.79342704       0.66412732       0.37079665 </v>
    <v>       0.12676037       0.99746065       0.37079665 </v>
    <v>       0.46009370       0.99746065       0.37079665 </v>
    <v>       0.79342704       0.99746065       0.37079665 </v>
    <v>       0.06350899       0.26982435       0.00000000 </v>
    <v>       0.39684232       0.26982435       0.00000000 </v>
    <v>       0.73017565       0.26982435       0.00000000 </v>
    <v>       0.06350899       0.60315768       0.00000000 </v>
    <v>       0.39684232       0.60315768       0.00000000 </v>
    <v>       0.73017565       0.60315768       0.00000000 </v>
    <v>       0.06350899       0.93649101       0.00000000 </v>
    <v>       0.39684232       0.93649101       0.00000000 </v>
    <v>       0.73017565       0.93649101       0.00000000 </v>
    <v>       0.29027274       0.17130032       0.39352170 </v>
    <v>       0.62360607       0.17214940       0.39352170 </v>
    <v>       0.95693941       0.17214940       0.39352170 </v>
    <v>       0.29027274       0.50548273       0.39352170 </v>
    <v>       0.62360607       0.50548273       0.39352170 </v>
    <v>       0.95693941       0.50548273       0.39352170 </v>
    <v>       0.29027274       0.83881607       0.39352170 </v>
    <v>       0.62360607       0.83881607       0.39352170 </v>
    <v>       0.95693941       0.83881607       0.39352170 </v>
    <v>       0.16118393       0.04306059       0.60647830 </v>
    <v>       0.49451727       0.04306059       0.60647830 </v>
    <v>       0.82785060       0.04306059       0.60647830 </v>
    <v>       0.16118393       0.37639393       0.60647830 </v>
    <v>       0.49451727       0.37639393       0.60647830 </v>
    <v>       0.82785060       0.37639393       0.60647830 </v>
    <v>       0.16118393       0.70972726       0.60647830 </v>
    <v>       0.49451727       0.70972726       0.60647830 </v>
    <v>       0.82785060       0.70972726       0.60647830 </v>
    <v>       0.03761391       0.07731307       0.84542777 </v>
    <v>       0.37094724       0.07731307       0.84542777 </v>
    <v>       0.70428057       0.07731307       0.84542777 </v>
    <v>       0.03761391       0.41064640       0.84542777 </v>
    <v>       0.37094724       0.41064640       0.84542777 </v>
    <v>       0.70428057       0.41064640       0.84542777 </v>
    <v>       0.03761391       0.74397973       0.84542777 </v>
    <v>       0.37094724       0.74397973       0.84542777 </v>
    <v>       0.70428057       0.74397973       0.84542777 </v>
    <v>       0.25602027       0.29571943       0.15457223 </v>
    <v>       0.58935360       0.29571943       0.15457223 </v>
    <v>       0.92268693       0.29571943       0.15457223 </v>
    <v>       0.25602027       0.62905276       0.15457223 </v>
    <v>       0.58935360       0.62905276       0.15457223 </v>
    <v>       0.92268693       0.62905276       0.15457223 </v>
    <v>       0.25602027       0.96238609       0.15457223 </v>
    <v>       0.58935360       0.96238609       0.15457223 </v>
    <v>       0.92268693       0.96238609       0.15457223 </v>
   </varray>
  </structure>
  <varray name="forces" >
   <v>      -0.00002515       0.00058053       0.00044256 </v>
   <v>       0.00005829       0.00052347       0.00036267 </v>
   <v>      -0.00000417       0.00059827       0.00034836 </v>
   <v>       0.00009560      -0.00072711      -0.00027568 </v>
   <v>       0.00001737      -0.00067550      -0.00029189 </v>
   <v>      -0.00007281      -0.00066790      -0.00029759 </v>
   <v>       0.00005947       0.00035899       0.00008611 </v>
   <v>       0.00014559       0.00037231       0.00013096 </v>
   <v>      -0.00017023       0.00041365       0.00012712 </v>
   <v>      -0.00050068       0.00238019      -0.00002861 </v>
   <v>       0.00072801       0.00205388       0.00013330 </v>
   <v>      -0.00051474       0.00049145      -0.00006187 </v>
   <v>      -0.00039620      -0.00093383       0.00070778 </v>
   <v>       0.00058722      -0.00084290       0.00075859 </v>
   <v>      -0.00049514      -0.00022540       0.00004041 </v>
   <v>      -0.00033020      -0.00098437      -0.00080597 </v>
   <v>       0.00061578      -0.00087094      -0.00055161 </v>
   <v>      -0.00053011      -0.00026170      -0.00019278 </v>
   <v>      -0.00010001      -0.00806506      -0.00108921 </v>
   <v>      -0.00009673      -0.00246744      -0.00010223 </v>
   <v>      -0.00035965      -0.00264621      -0.00010781 </v>
   <v>      -0.00011744       0.00225558      -0.00094434 </v>
   <v>       0.00077954       0.00166766      -0.00103897 </v>
   <v>      -0.00134632       0.00182149      -0.00117096 </v>
   <v>      -0.00027477       0.00230705       0.00094651 </v>
   <v>      -0.00102390       0.00169561       0.00107065 </v>
   <v>       0.00068556       0.00188164       0.00120880 </v>
   <v>      -0.00021861      -0.00030201      -0.00060117 </v>
   <v>       0.00034157      -0.00029355      -0.00043291 </v>
   <v>       0.00004527      -0.00016431      -0.00006697 </v>
   <v>       0.00041907      -0.00017593       0.00046080 </v>
   <v>      -0.00030062      -0.00024673       0.00035441 </v>
   <v>      -0.00002389      -0.00000466      -0.00003893 </v>
   <v>       0.00001918       0.00093960       0.00016732 </v>
   <v>       0.00001128       0.00090313       0.00015230 </v>
   <v>       0.00009927       0.00105438       0.00014650 </v>
   <v>       0.00004628      -0.00126156      -0.00015653 </v>
   <v>       0.00006582      -0.00318852       0.00069358 </v>
   <v>      -0.00002314      -0.00111032      -0.00008762 </v>
   <v>      -0.00053558       0.00098666       0.00101978 </v>
   <v>       0.00008052       0.00108537       0.00105983 </v>
   <v>       0.00050476       0.00090748       0.00094192 </v>
   <v>       0.00055354       0.00092928      -0.00085283 </v>
   <v>      -0.00006399       0.00103025      -0.00084030 </v>
   <v>      -0.00045281       0.00083521      -0.00081953 </v>
   <v>      -0.00015616      -0.00235531       0.00057839 </v>
   <v>       0.00241841       0.00054181       0.00026135 </v>
   <v>      -0.00003045      -0.00058854       0.00025336 </v>
   <v>       0.00000579       0.00185789       0.00010611 </v>
   <v>       0.00003697       0.00178103       0.00009728 </v>
   <v>       0.00005640       0.00137337       0.00009655 </v>
   <v>       0.00201146      -0.00086053      -0.00048764 </v>
   <v>      -0.00327956       0.00134974      -0.00025021 </v>
   <v>       0.00009400      -0.00066243      -0.00018001 </v>
   <v>       0.00001603      -0.00036222      -0.00081616 </v>
   <v>       0.00004683      -0.00022022      -0.00081830 </v>
   <v>      -0.00000943      -0.00022076      -0.00040009 </v>
   <v>       0.00000693       0.00044321       0.00010249 </v>
   <v>       0.00001708       0.00039407       0.00008823 </v>
   <v>       0.00000840       0.00040213       0.00008862 </v>
   <v>       0.00006347      -0.00026041       0.00071076 </v>
   <v>      -0.00005851      -0.00027314       0.00065111 </v>
   <v>       0.00002162      -0.00015959       0.00028222 </v>
   <v>      -0.00088347       0.02057113      -0.00039253 </v>
   <v>       0.00005626       0.00302821      -0.00003437 </v>
   <v>      -0.00000480       0.00304030      -0.00006009 </v>
   <v>       0.00005152      -0.00406872      -0.00044041 </v>
   <v>      -0.00169467      -0.00312275      -0.00041258 </v>
   <v>       0.00205344      -0.00307842      -0.00046693 </v>
   <v>       0.00014772      -0.00394421       0.00021345 </v>
   <v>       0.00199888      -0.00293068       0.00024822 </v>
   <v>      -0.00241521      -0.00297484       0.00018688 </v>
   <v>      -0.00159680      -0.00047357       0.00515761 </v>
   <v>       0.00117064      -0.00036646       0.00465629 </v>
   <v>       0.00000657       0.00039153       0.00069503 </v>
   <v>       0.00106877      -0.00061210      -0.00490805 </v>
   <v>      -0.00102871      -0.00052719      -0.00443761 </v>
   <v>       0.00002260       0.00020851      -0.00040027 </v>
   <v>      -0.00016229      -0.00127257      -0.00004237 </v>
   <v>      -0.00001140      -0.00125743      -0.00001358 </v>
   <v>       0.00001113      -0.00131546      -0.00002713 </v>
   <v>      -0.00003360       0.00073093       0.00007085 </v>
   <v>       0.00020464       0.00120732      -0.00047442 </v>
   <v>       0.00028151       0.00046771       0.00010838 </v>
   <v>       0.00023267      -0.00010366       0.00007176 </v>
   <v>       0.00001568       0.00059073       0.00064006 </v>
   <v>       0.00019174      -0.00004542       0.00005798 </v>
   <v>       0.00009886      -0.00084137      -0.00015865 </v>
   <v>       0.00012293      -0.00088781      -0.00018183 </v>
   <v>       0.00023292      -0.00066641      -0.00007353 </v>
   <v>      -0.00024192      -0.00188539       0.00707823 </v>
   <v>      -0.00101832       0.00063045       0.00134187 </v>
   <v>       0.00134337       0.00071880       0.00151987 </v>
   <v>       0.00006871      -0.00181825      -0.00013247 </v>
   <v>       0.00006283      -0.00154308      -0.00014569 </v>
   <v>       0.00007806      -0.00168465      -0.00014221 </v>
   <v>       0.00037854      -0.00196144      -0.00689713 </v>
   <v>       0.00108122       0.00076702      -0.00146972 </v>
   <v>      -0.00114137       0.00089196      -0.00160292 </v>
  </varray>
  <varray name="stress" >
   <v>      -0.16741873       0.00822383      -0.00785780 </v>
   <v>       0.00869197      -0.15020456      -0.00633422 </v>
   <v>       0.00176958       0.00357023      -0.15035786 </v>
  </varray>
  <energy>
   <i name="e_fr_energy">   -550.33916219 </i>
   <i name="e_wo_entrp">   -550.33916219 </i>
   <i name="e_0_energy">     -0.00000000 </i>
  </energy>
  <time name="totalsc"> 9194.09 9283.99</time>
  <eigenvalues>
   <array>
    <dimension dim="1">band</dimension>
    <dimension dim="2">kpoint</dimension>
    <dimension dim="3">spin</dimension>
    <field>eigene</field>
    <field>occ</field>
    <set>
     <set comment="spin 1">
      <set comment="kpoint 1">
       <r>  -51.0512    1.0000 </r>
       <r>  -51.0511    1.0000 </r>
       <r>  -51.0509    1.0000 </r>
       <r>  -51.0509    1.0000 </r>
       <r>  -51.0505    1.0000 </r>
       <r>  -51.0498    1.0000 </r>
       <r>  -51.0498    1.0000 </r>
       <r>  -51.0494    1.0000 </r>
       <r>  -51.0491    1.0000 </r>
       <r>  -51.0490    1.0000 </r>
       <r>  -51.0490    1.0000 </r>
       <r>  -51.0483    1.0000 </r>
       <r>  -51.0482    1.0000 </r>
       <r>  -51.0477    1.0000 </r>
       <r>  -51.0468    1.0000 </r>
       <r>  -51.0467    1.0000 </r>
       <r>  -51.0467    1.0000 </r>
       <r>  -51.0455    1.0000 </r>
       <r>  -51.0380    1.0000 </r>
       <r>  -51.0375    1.0000 </r>
       <r>  -51.0375    1.0000 </r>
       <r>  -51.0372    1.0000 </r>
       <r>  -51.0371    1.0000 </r>
       <r>  -51.0368    1.0000 </r>
       <r>  -51.0363    1.0000 </r>
       <r>  -51.0363    1.0000 </r>
       <r>  -51.0363    1.0000 </r>
       <r>  -51.0362    1.0000 </r>
       <r>  -51.0361    1.0000 </r>
       <r>  -51.0361    1.0000 </r>
       <r>  -51.0360    1.0000 </r>
       <r>  -51.0355    1.0000 </r>
       <r>  -51.0354    1.0000 </r>
       <r>  -51.0351    1.0000 </r>
       <r>  -51.0351    1.0000 </r>
       <r>  -51.0347    1.0000 </r>
       <r>  -49.6920    1.0000 </r>
       <r>  -49.6907    1.0000 </r>
       <r>  -49.6901    1.0000 </r>
       <r>  -49.6896    1.0000 </r>
       <r>  -49.6895    1.0000 </r>
       <r>  -49.6895    1.0000 </r>
       <r>  -49.6894    1.0000 </r>
       <r>  -49.6894    1.0000 </r>
       <r>  -49.6894    1.0000 </r>
       <r>  -49.6893    1.0000 </r>
       <r>  -49.6893    1.0000 </r>
       <r>  -49.6887    1.0000 </r>
       <r>  -49.6887    1.0000 </r>
       <r>  -49.6886    1.0000 </r>
       <r>  -49.6886    1.0000 </r>
       <r>  -49.6882    1.0000 </r>
       <r>  -49.6878    1.0000 </r>
       <r>  -49.6863    1.0000 </r>
       <r>  -49.5924    1.0000 </r>
       <r>  -49.5921    1.0000 </r>
       <r>  -49.5915    1.0000 </r>
       <r>  -49.5911    1.0000 </r>
       <r>  -49.5908    1.0000 </r>
       <r>  -49.5906    1.0000 </r>
       <r>  -49.5903    1.0000 </r>
       <r>  -49.5902    1.0000 </r>
       <r>  -49.5902    1.0000 </r>
       <r>  -49.5900    1.0000 </r>
       <r>  -49.5892    1.0000 </r>
       <r>  -49.5889    1.0000 </r>
       <r>  -49.5883    1.0000 </r>
       <r>  -49.5882    1.0000 </r>
       <r>  -49.5878    1.0000 </r>
       <r>  -49.5868    1.0000 </r>
       <r>  -49.5867    1.0000 </r>
       <r>  -49.5864    1.0000 </r>
       <r>  -49.5627    1.0000 </r>
       <r>  -49.5627    1.0000 </r>
       <r>  -49.5624    1.0000 </r>
       <r>  -49.5613    1.0000 </r>
       <r>  -49.5609    1.0000 </r>
       <r>  -49.5607    1.0000 </r>
       <r>  -49.5604    1.0000 </r>
       <r>  -49.5601    1.0000 </r>
       <r>  -49.5596    1.0000 </r>
       <r>  -49.5595    1.0000 </r>
       <r>  -49.5589    1.0000 </r>
       <r>  -49.5588    1.0000 </r>
       <r>  -49.5585    1.0000 </r>
       <r>  -49.5583    1.0000 </r>
       <r>  -49.5582    1.0000 </r>
       <r>  -49.5580    1.0000 </r>
       <r>  -49.5575    1.0000 </r>
       <r>  -49.5562    1.0000 </r>
       <r>  -49.5494    1.0000 </r>
       <r>  -49.5489    1.0000 </r>
       <r>  -49.5488    1.0000 </r>
       <r>  -49.5486    1.0000 </r>
       <r>  -49.5484    1.0000 </r>
       <r>  -49.5482    1.0000 </r>
       <r>  -49.5474    1.0000 </r>
       <r>  -49.5474    1.0000 </r>
       <r>  -49.5473    1.0000 </r>
       <r>  -49.5470    1.0000 </r>
       <r>  -49.5469    1.0000 </r>
       <r>  -49.5469    1.0000 </r>
       <r>  -49.5469    1.0000 </r>
       <r>  -49.5465    1.0000 </r>
       <r>  -49.5464    1.0000 </r>
       <r>  -49.5462    1.0000 </r>
       <r>  -49.5461    1.0000 </r>
       <r>  -49.5458    1.0000 </r>
       <r>  -39.8641    1.0000 </r>
       <r>  -39.8635    1.0000 </r>
       <r>  -39.8635    1.0000 </r>
       <r>  -39.8632    1.0000 </r>
       <r>  -39.8632    1.0000 </r>
       <r>  -39.8630    1.0000 </r>
       <r>  -39.8629    1.0000 </r>
       <r>  -39.8625    1.0000 </r>
       <r>  -39.8625    1.0000 </r>
       <r>  -39.8623    1.0000 </r>
       <r>  -39.8623    1.0000 </r>
       <r>  -39.8622    1.0000 </r>
       <r>  -39.8622    1.0000 </r>
       <r>  -39.8621    1.0000 </r>
       <r>  -39.8619    1.0000 </r>
       <r>  -39.8619    1.0000 </r>
       <r>  -39.8615    1.0000 </r>
       <r>  -39.8611    1.0000 </r>
       <r>  -13.2350    1.0000 </r>
       <r>  -13.2349    1.0000 </r>
       <r>  -13.2348    1.0000 </r>
       <r>  -13.2347    1.0000 </r>
       <r>  -13.2259    1.0000 </r>
       <r>  -13.1987    1.0000 </r>
       <r>  -13.0556    1.0000 </r>
       <r>  -13.0555    1.0000 </r>
       <r>  -13.0542    1.0000 </r>
       <r>  -13.0541    1.0000 </r>
       <r>  -13.0424    1.0000 </r>
       <r>  -13.0423    1.0000 </r>
       <r>  -13.0411    1.0000 </r>
       <r>  -13.0410    1.0000 </r>
       <r>  -13.0193    1.0000 </r>
       <r>  -13.0186    1.0000 </r>
       <r>  -13.0186    1.0000 </r>
       <r>  -13.0180    1.0000 </r>
       <r>   -7.6148    1.0000 </r>
       <r>   -7.4115    1.0000 </r>
       <r>   -7.3759    1.0000 </r>
       <r>   -7.3750    1.0000 </r>
       <r>   -7.3750    1.0000 </r>
       <r>   -7.3741    1.0000 </r>
       <r>   -7.1815    1.0000 </r>
       <r>   -7.1812    1.0000 </r>
       <r>   -7.1717    1.0000 </r>
       <r>   -7.1715    1.0000 </r>
       <r>   -7.1526    1.0000 </r>
       <r>   -7.1513    1.0000 </r>
       <r>   -7.1512    1.0000 </r>
       <r>   -7.1499    1.0000 </r>
       <r>   -6.9846    1.0000 </r>
       <r>   -6.9656    1.0000 </r>
       <r>   -6.9646    1.0000 </r>
       <r>   -6.9308    1.0000 </r>
       <r>   -6.9298    1.0000 </r>
       <r>   -6.8731    1.0000 </r>
       <r>   -6.8714    1.0000 </r>
       <r>   -6.8713    1.0000 </r>
       <r>   -6.8695    1.0000 </r>
       <r>   -6.8078    1.0000 </r>
       <r>   -6.8065    1.0000 </r>
       <r>   -6.7809    1.0000 </r>
       <r>   -6.7797    1.0000 </r>
       <r>   -1.8368    1.0000 </r>
       <r>   -1.8367    1.0000 </r>
       <r>   -1.8366    1.0000 </r>
       <r>   -1.8365    1.0000 </r>
       <r>   -1.8164    1.0000 </r>
       <r>   -1.8160    1.0000 </r>
       <r>   -1.8037    1.0000 </r>
       <r>   -1.8034    1.0000 </r>
       <r>   -1.7664    1.0000 </r>
       <r>   -1.7662    1.0000 </r>
       <r>   -1.7536    1.0000 </r>
       <r>   -1.7534    1.0000 </r>
       <r>   -1.2808    1.0000 </r>
       <r>   -1.1979    1.0000 </r>
       <r>   -1.1972    1.0000 </r>
       <r>   -1.1972    1.0000 </r>
       <r>   -1.1968    1.0000 </r>
       <r>   -1.0050    1.0000 </r>
       <r>   -1.0049    1.0000 </r>
       <r>   -0.9741    1.0000 </r>
       <r>   -0.9741    1.0000 </r>
       <r>   -0.9588    1.0000 </r>
       <r>   -0.9587    1.0000 </r>
       <r>   -0.9467    1.0000 </r>
       <r>   -0.9385    1.0000 </r>
       <r>   -0.9313    1.0000 </r>
       <r>   -0.9282    1.0000 </r>
       <r>   -0.9281    1.0000 </r>
       <r>   -0.8847    1.0000 </r>
       <r>   -0.8846    1.0000 </r>
       <r>   -0.8845    1.0000 </r>
       <r>   -0.8840    1.0000 </r>
       <r>   -0.8715    1.0000 </r>
       <r>   -0.8712    1.0000 </r>
       <r>   -0.8675    1.0000 </r>
       <r>   -0.8672    1.0000 </r>
       <r>   -0.8671    1.0000 </r>
       <r>   -0.8668    1.0000 </r>
       <r>   -0.8596    1.0000 </r>
       <r>   -0.8593    1.0000 </r>
       <r>   -0.7009    1.0000 </r>
       <r>   -0.7002    1.0000 </r>
       <r>   -0.7002    1.0000 </r>
       <r>   -0.6993    1.0000 </r>
       <r>   -0.6714    1.0000 </r>
       <r>   -0.6711    1.0000 </r>
       <r>   -0.6230    1.0000 </r>
       <r>   -0.6228    1.0000 </r>
       <r>   -0.6226    1.0000 </r>
       <r>   -0.6225    1.0000 </r>
       <r>   -0.6219    1.0000 </r>
       <r>   -0.6217    1.0000 </r>
       <r>   -0.3525    1.0000 </r>
       <r>   -0.3520    1.0000 </r>
       <r>   -0.3519    1.0000 </r>
       <r>   -0.3517    1.0000 </r>
       <r>   -0.3219    1.0000 </r>
       <r>   -0.3215    1.0000 </r>
       <r>   -0.2918    1.0000 </r>
       <r>   -0.2910    1.0000 </r>
       <r>   -0.2647    1.0000 </r>
       <r>   -0.2642    1.0000 </r>
       <r>   -0.2641    1.0000 </r>
       <r>   -0.2635    1.0000 </r>
       <r>   -0.2607    1.0000 </r>
       <r>   -0.2603    1.0000 </r>
       <r>   -0.2578    1.0000 </r>
       <r>   -0.2487    1.0000 </r>
       <r>   -0.2483    1.0000 </r>
       <r>   -0.2426    1.0000 </r>
       <r>   -0.2204    1.0000 </r>
       <r>   -0.1406    1.0000 </r>
       <r>   -0.1404    1.0000 </r>
       <r>   -0.1403    1.0000 </r>
       <r>   -0.1395    1.0000 </r>
       <r>   -0.1393    1.0000 </r>
       <r>   -0.1391    1.0000 </r>
       <r>   -0.1234    1.0000 </r>
       <r>   -0.1229    1.0000 </r>
       <r>   -0.1228    1.0000 </r>
       <r>   -0.1222    1.0000 </r>
       <r>   -0.1201    1.0000 </r>
       <r>   -0.1198    1.0000 </r>
       <r>   -0.0778    1.0000 </r>
       <r>   -0.0773    1.0000 </r>
       <r>   -0.0595    1.0000 </r>
       <r>   -0.0118    1.0000 </r>
       <r>   -0.0115    1.0000 </r>
       <r>    0.0158    1.0000 </r>
       <r>    0.0159    1.0000 </r>
       <r>    0.0261    1.0000 </r>
       <r>    0.0262    1.0000 </r>
       <r>    0.0422    1.0000 </r>
       <r>    0.0431    1.0000 </r>
       <r>    0.0432    1.0000 </r>
       <r>    0.0442    1.0000 </r>
       <r>    0.0606    1.0000 </r>
       <r>    0.0611    1.0000 </r>
       <r>    0.1494    1.0000 </r>
       <r>    0.1499    1.0000 </r>
       <r>    0.1500    1.0000 </r>
       <r>    0.1511    1.0000 </r>
       <r>    0.1583    1.0000 </r>
       <r>    0.1639    1.0000 </r>
       <r>    0.1656    1.0000 </r>
       <r>    0.1825    1.0000 </r>
       <r>    0.1826    1.0000 </r>
       <r>    0.1923    1.0000 </r>
       <r>    0.1964    1.0000 </r>
       <r>    0.1971    1.0000 </r>
       <r>    0.2078    1.0000 </r>
       <r>    0.2079    1.0000 </r>
       <r>    0.2579    1.0000 </r>
       <r>    0.2584    1.0000 </r>
       <r>    0.2584    1.0000 </r>
       <r>    0.2588    1.0000 </r>
       <r>    0.2785    1.0000 </r>
       <r>    0.2786    1.0000 </r>
       <r>    0.3392    1.0000 </r>
       <r>    0.3394    1.0000 </r>
       <r>    0.3594    1.0000 </r>
       <r>    0.3599    1.0000 </r>
       <r>    0.3600    1.0000 </r>
       <r>    0.3606    1.0000 </r>
       <r>    0.3802    1.0000 </r>
       <r>    0.3832    1.0000 </r>
       <r>    0.4896    1.0000 </r>
       <r>    0.4898    1.0000 </r>
       <r>    0.4900    1.0000 </r>
       <r>    0.4901    1.0000 </r>
       <r>    0.5166    1.0000 </r>
       <r>    0.5169    1.0000 </r>
       <r>    0.5170    1.0000 </r>
       <r>    0.5179    1.0000 </r>
       <r>    0.5587    1.0000 </r>
       <r>    0.5590    1.0000 </r>
       <r>    0.6089    1.0000 </r>
       <r>    0.6092    1.0000 </r>
       <r>    0.6149    1.0000 </r>
       <r>    0.6304    1.0000 </r>
       <r>    0.6309    1.0000 </r>
       <r>    0.6310    1.0000 </r>
       <r>    0.6321    1.0000 </r>
       <r>    0.7523    1.0000 </r>
       <r>    0.7525    1.0000 </r>
       <r>    0.7611    1.0000 </r>
       <r>    0.7616    1.0000 </r>
       <r>    0.7618    1.0000 </r>
       <r>    0.7623    1.0000 </r>
       <r>    0.7907    1.0000 </r>
       <r>    0.7908    1.0000 </r>
       <r>    0.7933    1.0000 </r>
       <r>    0.8461    1.0000 </r>
       <r>    0.8461    1.0000 </r>
       <r>    0.8548    1.0000 </r>
       <r>    0.8553    1.0000 </r>
       <r>    0.9678    1.0000 </r>
       <r>    0.9691    1.0000 </r>
       <r>    0.9692    1.0000 </r>
       <r>    0.9704    1.0000 </r>
       <r>    0.9793    1.0000 </r>
       <r>    1.2396    1.0000 </r>
       <r>    1.2399    1.0000 </r>
       <r>    1.2401    1.0000 </r>
       <r>    1.2402    1.0000 </r>
       <r>    1.2640    1.0000 </r>
       <r>    1.2924    1.0000 </r>
       <r>    1.2930    1.0000 </r>
       <r>    1.3304    1.0000 </r>
       <r>    1.3309    1.0000 </r>
       <r>    1.3585    1.0000 </r>
       <r>    1.3588    1.0000 </r>
       <r>    1.3590    1.0000 </r>
       <r>    1.3596    1.0000 </r>
       <r>    1.4367    1.0000 </r>
       <r>    1.4369    1.0000 </r>
       <r>    1.4642    1.0000 </r>
       <r>    1.4754    1.0000 </r>
       <r>    1.4873    1.0000 </r>
       <r>    1.4876    1.0000 </r>
       <r>    1.5476    1.0000 </r>
       <r>    1.6788    1.0000 </r>
       <r>    1.6800    1.0000 </r>
       <r>    1.6803    1.0000 </r>
       <r>    1.7230    1.0000 </r>
       <r>    1.7239    1.0000 </r>
       <r>    1.7239    1.0000 </r>
       <r>    1.7243    1.0000 </r>
       <r>    1.7656    1.0000 </r>
       <r>    1.7659    1.0000 </r>
       <r>    1.8140    1.0000 </r>
       <r>    1.8145    1.0000 </r>
       <r>    1.8149    1.0000 </r>
       <r>    1.8151    1.0000 </r>
       <r>    1.8267    1.0000 </r>
       <r>    1.8269    1.0000 </r>
       <r>    1.8279    1.0000 </r>
       <r>    1.8283    1.0000 </r>
       <r>    1.8396    1.0000 </r>
       <r>    1.8760    1.0000 </r>
       <r>    1.8865    1.0000 </r>
       <r>    1.9029    1.0000 </r>
       <r>    1.9032    1.0000 </r>
       <r>    1.9173    1.0000 </r>
       <r>    1.9177    1.0000 </r>
       <r>    1.9631    1.0000 </r>
       <r>    1.9637    1.0000 </r>
       <r>    1.9897    1.0000 </r>
       <r>    1.9903    1.0000 </r>
       <r>    1.9987    1.0000 </r>
       <r>    1.9993    1.0000 </r>
       <r>    1.9994    1.0000 </r>
       <r>    1.9999    1.0000 </r>
       <r>    2.0712    1.0000 </r>
       <r>    2.0716    1.0000 </r>
       <r>    2.0814    1.0000 </r>
       <r>    2.0815    1.0000 </r>
       <r>    2.0816    1.0000 </r>
       <r>    2.0818    1.0000 </r>
       <r>    2.0942    1.0000 </r>
       <r>    2.0947    1.0000 </r>
       <r>    2.1161    1.0000 </r>
       <r>    2.1163    1.0000 </r>
       <r>    2.1165    1.0000 </r>
       <r>    2.1165    1.0000 </r>
       <r>    2.1954    1.0000 </r>
       <r>    2.1959    1.0000 </r>
       <r>    2.2885    1.0000 </r>
       <r>    2.2887    1.0000 </r>
       <r>    2.4161    1.0000 </r>
       <r>    2.4167    1.0000 </r>
       <r>    2.4404    1.0000 </r>
       <r>    2.4408    1.0000 </r>
       <r>    2.4409    1.0000 </r>
       <r>    2.4415    1.0000 </r>
       <r>    2.4996    1.0000 </r>
       <r>    2.5162    1.0000 </r>
       <r>    2.5164    1.0000 </r>
       <r>    2.5166    1.0000 </r>
       <r>    2.5171    1.0000 </r>
       <r>    2.5597    1.0000 </r>
       <r>    2.5598    1.0000 </r>
       <r>    2.5653    1.0000 </r>
       <r>    2.7180    1.0000 </r>
       <r>    2.7188    1.0000 </r>
       <r>    2.7188    1.0000 </r>
       <r>    2.7192    1.0000 </r>
       <r>    2.7331    1.0000 </r>
       <r>    2.7339    1.0000 </r>
       <r>    2.8001    1.0000 </r>
       <r>    2.8006    1.0000 </r>
       <r>    3.0017    1.0000 </r>
       <r>    3.0027    1.0000 </r>
       <r>    3.0062    1.0000 </r>
       <r>    3.0069    1.0000 </r>
       <r>    3.1702    1.0000 </r>
       <r>    3.2190    1.0000 </r>
       <r>    3.2193    1.0000 </r>
       <r>    3.2219    1.0000 </r>
       <r>    3.2222    1.0000 </r>
       <r>    3.3595    1.0000 </r>
       <r>    3.3597    1.0000 </r>
       <r>    3.3598    1.0000 </r>
       <r>    3.3604    1.0000 </r>
       <r>    3.3931    1.0000 </r>
       <r>    3.4017    1.0000 </r>
       <r>    3.5017    1.0000 </r>
       <r>    3.5020    1.0000 </r>
       <r>    3.5874    1.0000 </r>
       <r>    3.5875    1.0000 </r>
       <r>    3.8158    1.0000 </r>
       <r>    3.8162    1.0000 </r>
       <r>    3.8304    1.0000 </r>
       <r>    3.8307    1.0000 </r>
       <r>    4.0028    1.0000 </r>
       <r>    4.0029    1.0000 </r>
       <r>    4.0030    1.0000 </r>
       <r>    4.0035    1.0000 </r>
       <r>    4.0311    1.0000 </r>
       <r>    4.0317    1.0000 </r>
       <r>    4.0318    1.0000 </r>
       <r>    4.0323    1.0000 </r>
       <r>    4.1062    1.0000 </r>
       <r>    4.1168    1.0000 </r>
       <r>    4.1220    1.0000 </r>
       <r>    4.1595    1.0000 </r>
       <r>    4.1600    1.0000 </r>
       <r>    4.2589    1.0000 </r>
       <r>    4.2592    1.0000 </r>
       <r>    4.2767    1.0000 </r>
       <r>    4.2772    1.0000 </r>
       <r>    4.3302    1.0000 </r>
       <r>    4.3307    1.0000 </r>
       <r>    4.3584    1.0000 </r>
       <r>    4.3586    1.0000 </r>
       <r>    4.3587    1.0000 </r>
       <r>    4.3591    1.0000 </r>
       <r>    4.4114    1.0000 </r>
       <r>    4.4118    1.0000 </r>
       <r>    4.4337    1.0000 </r>
       <r>    4.4343    1.0000 </r>
       <r>    4.5231    1.0000 </r>
       <r>    4.5234    1.0000 </r>
       <r>    4.5236    1.0000 </r>
       <r>    4.5240    1.0000 </r>
       <r>    4.5508    1.0000 </r>
       <r>    4.5511    1.0000 </r>
       <r>    4.8109    1.0000 </r>
       <r>    4.8120    1.0000 </r>
       <r>    4.8121    1.0000 </r>
       <r>    4.8130    1.0000 </r>
       <r>    4.8747    1.0000 </r>
       <r>    4.8750    1.0000 </r>
       <r>    4.8750    1.0000 </r>
       <r>    4.8755    1.0000 </r>
       <r>    7.3646    0.0000 </r>
       <r>    8.4303    0.0000 </r>
       <r>    8.6650    0.0000 </r>
       <r>    8.6656    0.0000 </r>
       <r>    8.8410    0.0000 </r>
       <r>    8.8418    0.0000 </r>
       <r>    8.8419    0.0000 </r>
       <r>    8.8426    0.0000 </r>
       <r>    8.9863    0.0000 </r>
       <r>    8.9867    0.0000 </r>
       <r>    9.3103    0.0000 </r>
       <r>    9.3111    0.0000 </r>
       <r>    9.3113    0.0000 </r>
       <r>    9.3121    0.0000 </r>
       <r>    9.3213    0.0000 </r>
       <r>    9.3217    0.0000 </r>
       <r>    9.4447    0.0000 </r>
       <r>    9.4453    0.0000 </r>
       <r>    9.5150    0.0000 </r>
       <r>    9.5159    0.0000 </r>
       <r>    9.5159    0.0000 </r>
       <r>    9.5164    0.0000 </r>
       <r>    9.8732    0.0000 </r>
       <r>    9.8787    0.0000 </r>
       <r>    9.9189    0.0000 </r>
       <r>    9.9191    0.0000 </r>
       <r>    9.9191    0.0000 </r>
       <r>    9.9193    0.0000 </r>
       <r>    9.9667    0.0000 </r>
       <r>    9.9673    0.0000 </r>
       <r>   10.0691    0.0000 </r>
       <r>   10.0698    0.0000 </r>
       <r>   10.4889    0.0000 </r>
       <r>   10.5024    0.0000 </r>
       <r>   10.5028    0.0000 </r>
       <r>   10.5194    0.0000 </r>
       <r>   10.5198    0.0000 </r>
       <r>   10.8013    0.0000 </r>
       <r>   10.8015    0.0000 </r>
       <r>   10.8015    0.0000 </r>
       <r>   10.8019    0.0000 </r>
       <r>   10.8753    0.0000 </r>
       <r>   10.8759    0.0000 </r>
       <r>   11.0181    0.0000 </r>
       <r>   11.0184    0.0000 </r>
       <r>   11.0513    0.0000 </r>
       <r>   11.2663    0.0000 </r>
       <r>   11.2665    0.0000 </r>
       <r>   11.3730    0.0000 </r>
       <r>   11.3734    0.0000 </r>
       <r>   11.3736    0.0000 </r>
       <r>   11.3738    0.0000 </r>
       <r>   11.3879    0.0000 </r>
       <r>   11.3880    0.0000 </r>
       <r>   11.3941    0.0000 </r>
       <r>   11.3944    0.0000 </r>
       <r>   11.3944    0.0000 </r>
       <r>   11.3945    0.0000 </r>
       <r>   11.4482    0.0000 </r>
       <r>   11.6176    0.0000 </r>
       <r>   11.6178    0.0000 </r>
       <r>   11.8012    0.0000 </r>
       <r>   11.8012    0.0000 </r>
[...]
       <r>   -45.9022    72.4756    53.4623 </r>
       <r>   -45.6612   226.2717   108.0000 </r>
       <r>   -45.4202     0.0000   108.0000 </r>
       <r>   -45.1791     0.0000   108.0000 </r>
       <r>   -44.9381     0.0000   108.0000 </r>
       <r>   -44.6971     0.0000   108.0000 </r>
       <r>   -44.4561     0.0000   108.0000 </r>
       <r>   -44.2150     0.0000   108.0000 </r>
       <r>   -43.9740     0.0000   108.0000 </r>
       <r>   -43.7330     0.0000   108.0000 </r>
       <r>   -43.4920     0.0000   108.0000 </r>
       <r>   -43.2509     0.0000   108.0000 </r>
       <r>   -43.0099     0.0000   108.0000 </r>
       <r>   -42.7689     0.0000   108.0000 </r>
       <r>   -42.5278     0.0000   108.0000 </r>
       <r>   -42.2868     0.0000   108.0000 </r>
       <r>   -42.0458     0.0000   108.0000 </r>
       <r>   -41.8048     0.0000   108.0000 </r>
       <r>   -41.5637     0.0000   108.0000 </r>
       <r>   -41.3227     0.0000   108.0000 </r>
       <r>   -41.0817     0.0000   108.0000 </r>
       <r>   -40.8407     0.0000   108.0000 </r>
       <r>   -40.5996     0.0000   108.0000 </r>
       <r>   -40.3586     0.0000   108.0000 </r>
       <r>   -40.1176     0.0000   108.0000 </r>
       <r>   -39.8765    24.2500   113.8449 </r>
       <r>   -39.6355    50.4304   126.0000 </r>
       <r>   -39.3945     0.0000   126.0000 </r>
       <r>   -39.1535     0.0000   126.0000 </r>
       <r>   -38.9124     0.0000   126.0000 </r>
       <r>   -38.6714     0.0000   126.0000 </r>
       <r>   -38.4304     0.0000   126.0000 </r>
       <r>   -38.1894     0.0000   126.0000 </r>
       <r>   -37.9483     0.0000   126.0000 </r>
       <r>   -37.7073     0.0000   126.0000 </r>
       <r>   -37.4663     0.0000   126.0000 </r>
       <r>   -37.2252     0.0000   126.0000 </r>
       <r>   -36.9842     0.0000   126.0000 </r>
       <r>   -36.7432     0.0000   126.0000 </r>
       <r>   -36.5022     0.0000   126.0000 </r>
       <r>   -36.2611     0.0000   126.0000 </r>
       <r>   -36.0201     0.0000   126.0000 </r>
       <r>   -35.7791     0.0000   126.0000 </r>
       <r>   -35.5381     0.0000   126.0000 </r>
       <r>   -35.2970     0.0000   126.0000 </r>
       <r>   -35.0560     0.0000   126.0000 </r>
       <r>   -34.8150     0.0000   126.0000 </r>
       <r>   -34.5739     0.0000   126.0000 </r>
       <r>   -34.3329     0.0000   126.0000 </r>
       <r>   -34.0919     0.0000   126.0000 </r>
       <r>   -33.8509     0.0000   126.0000 </r>
       <r>   -33.6098     0.0000   126.0000 </r>
       <r>   -33.3688     0.0000   126.0000 </r>
       <r>   -33.1278     0.0000   126.0000 </r>
       <r>   -32.8868     0.0000   126.0000 </r>
       <r>   -32.6457     0.0000   126.0000 </r>
       <r>   -32.4047     0.0000   126.0000 </r>
       <r>   -32.1637     0.0000   126.0000 </r>
       <r>   -31.9226     0.0000   126.0000 </r>
       <r>   -31.6816     0.0000   126.0000 </r>
       <r>   -31.4406     0.0000   126.0000 </r>
       <r>   -31.1996     0.0000   126.0000 </r>
       <r>   -30.9585     0.0000   126.0000 </r>
       <r>   -30.7175     0.0000   126.0000 </r>
       <r>   -30.4765     0.0000   126.0000 </r>
       <r>   -30.2355     0.0000   126.0000 </r>
       <r>   -29.9944     0.0000   126.0000 </r>
       <r>   -29.7534     0.0000   126.0000 </r>
       <r>   -29.5124     0.0000   126.0000 </r>
       <r>   -29.2713     0.0000   126.0000 </r>
       <r>   -29.0303     0.0000   126.0000 </r>
       <r>   -28.7893     0.0000   126.0000 </r>
       <r>   -28.5483     0.0000   126.0000 </r>
       <r>   -28.3072     0.0000   126.0000 </r>
       <r>   -28.0662     0.0000   126.0000 </r>
       <r>   -27.8252     0.0000   126.0000 </r>
       <r>   -27.5842     0.0000   126.0000 </r>
       <r>   -27.3431     0.0000   126.0000 </r>
       <r>   -27.1021     0.0000   126.0000 </r>
       <r>   -26.8611     0.0000   126.0000 </r>
       <r>   -26.6200     0.0000   126.0000 </r>
       <r>   -26.3790     0.0000   126.0000 </r>
       <r>   -26.1380     0.0000   126.0000 </r>
       <r>   -25.8970     0.0000   126.0000 </r>
       <r>   -25.6559     0.0000   126.0000 </r>
       <r>   -25.4149     0.0000   126.0000 </r>
       <r>   -25.1739     0.0000   126.0000 </r>
       <r>   -24.9329     0.0000   126.0000 </r>
       <r>   -24.6918     0.0000   126.0000 </r>
       <r>   -24.4508     0.0000   126.0000 </r>
       <r>   -24.2098     0.0000   126.0000 </r>
       <r>   -23.9687     0.0000   126.0000 </r>
       <r>   -23.7277     0.0000   126.0000 </r>
       <r>   -23.4867     0.0000   126.0000 </r>
       <r>   -23.2457     0.0000   126.0000 </r>
       <r>   -23.0046     0.0000   126.0000 </r>
       <r>   -22.7636     0.0000   126.0000 </r>
       <r>   -22.5226     0.0000   126.0000 </r>
       <r>   -22.2816     0.0000   126.0000 </r>
       <r>   -22.0405     0.0000   126.0000 </r>
       <r>   -21.7995     0.0000   126.0000 </r>
       <r>   -21.5585     0.0000   126.0000 </r>
       <r>   -21.3174     0.0000   126.0000 </r>
       <r>   -21.0764     0.0000   126.0000 </r>
       <r>   -20.8354     0.0000   126.0000 </r>
       <r>   -20.5944     0.0000   126.0000 </r>
       <r>   -20.3533     0.0000   126.0000 </r>
       <r>   -20.1123     0.0000   126.0000 </r>
       <r>   -19.8713     0.0000   126.0000 </r>
       <r>   -19.6303     0.0000   126.0000 </r>
       <r>   -19.3892     0.0000   126.0000 </r>
       <r>   -19.1482     0.0000   126.0000 </r>
       <r>   -18.9072     0.0000   126.0000 </r>
       <r>   -18.6661     0.0000   126.0000 </r>
       <r>   -18.4251     0.0000   126.0000 </r>
       <r>   -18.1841     0.0000   126.0000 </r>
       <r>   -17.9431     0.0000   126.0000 </r>
       <r>   -17.7020     0.0000   126.0000 </r>
       <r>   -17.4610     0.0000   126.0000 </r>
       <r>   -17.2200     0.0000   126.0000 </r>
       <r>   -16.9790     0.0000   126.0000 </r>
       <r>   -16.7379     0.0000   126.0000 </r>
       <r>   -16.4969     0.0000   126.0000 </r>
       <r>   -16.2559     0.0000   126.0000 </r>
       <r>   -16.0148     0.0000   126.0000 </r>
       <r>   -15.7738     0.0000   126.0000 </r>
       <r>   -15.5328     0.0000   126.0000 </r>
       <r>   -15.2918     0.0000   126.0000 </r>
       <r>   -15.0507     0.0000   126.0000 </r>
       <r>   -14.8097     0.0000   126.0000 </r>
       <r>   -14.5687     0.0000   126.0000 </r>
       <r>   -14.3277     0.0000   126.0000 </r>
       <r>   -14.0866     0.0000   126.0000 </r>
       <r>   -13.8456     0.0000   126.0000 </r>
       <r>   -13.6046     0.0000   126.0000 </r>
       <r>   -13.3635     0.0000   126.0000 </r>
       <r>   -13.1225     0.0000   126.0000 </r>
       <r>   -12.8815     0.5923   126.1428 </r>
       <r>   -12.6405    62.3027   141.1594 </r>
       <r>   -12.3994    11.7853   144.0000 </r>
       <r>   -12.1584     0.0000   144.0000 </r>
       <r>   -11.9174     0.0000   144.0000 </r>
       <r>   -11.6764     0.0000   144.0000 </r>
       <r>   -11.4353     0.0000   144.0000 </r>
       <r>   -11.1943     0.0000   144.0000 </r>
       <r>   -10.9533     0.0000   144.0000 </r>
       <r>   -10.7122     0.0000   144.0000 </r>
       <r>   -10.4712     0.0000   144.0000 </r>
       <r>   -10.2302     0.0000   144.0000 </r>
       <r>    -9.9892     0.0000   144.0000 </r>
       <r>    -9.7481     0.0000   144.0000 </r>
       <r>    -9.5071     0.0000   144.0000 </r>
       <r>    -9.2661     0.0000   144.0000 </r>
       <r>    -9.0251     0.0000   144.0000 </r>
       <r>    -8.7840     0.0000   144.0000 </r>
       <r>    -8.5430     0.0000   144.0000 </r>
       <r>    -8.3020     0.0000   144.0000 </r>
       <r>    -8.0609     0.0000   144.0000 </r>
       <r>    -7.8199     0.0000   144.0000 </r>
       <r>    -7.5789     0.0000   144.0000 </r>
       <r>    -7.3379     0.8010   144.1931 </r>
       <r>    -7.0968    21.2406   149.3126 </r>
       <r>    -6.8558    29.9246   156.5253 </r>
       <r>    -6.6148    27.3117   163.1081 </r>
       <r>    -6.3738    32.7039   170.9907 </r>
       <r>    -6.1327     0.0387   171.0000 </r>
       <r>    -5.8917     0.0000   171.0000 </r>
       <r>    -5.6507     0.0000   171.0000 </r>
       <r>    -5.4096     0.0000   171.0000 </r>
       <r>    -5.1686     0.0000   171.0000 </r>
       <r>    -4.9276     0.0000   171.0000 </r>
       <r>    -4.6866     0.0000   171.0000 </r>
       <r>    -4.4455     0.0000   171.0000 </r>
       <r>    -4.2045     0.0000   171.0000 </r>
       <r>    -3.9635     0.0000   171.0000 </r>
       <r>    -3.7225     0.0000   171.0000 </r>
       <r>    -3.4814     0.0000   171.0000 </r>
       <r>    -3.2404     0.0000   171.0000 </r>
       <r>    -2.9994     0.0000   171.0000 </r>
       <r>    -2.7583     0.0000   171.0000 </r>
       <r>    -2.5173     0.0000   171.0000 </r>
       <r>    -2.2763     0.0000   171.0000 </r>
       <r>    -2.0353     0.0000   171.0000 </r>
       <r>    -1.7942     0.0000   171.0000 </r>
       <r>    -1.5532     0.0000   171.0000 </r>
       <r>    -1.3122     0.0000   171.0000 </r>
       <r>    -1.0712     0.0000   171.0000 </r>
       <r>    -0.8301     0.0000   171.0000 </r>
       <r>    -0.5891     0.0011   171.0003 </r>
       <r>    -0.3481    10.9114   173.6302 </r>
       <r>    -0.1070    20.5152   178.5749 </r>
       <r>     0.1340    13.4721   181.8221 </r>
       <r>     0.3750    23.9496   187.5946 </r>
       <r>     0.6160    32.5859   195.4487 </r>
       <r>     0.8571    47.3016   206.8496 </r>
       <r>     1.0981    40.6129   216.6385 </r>
       <r>     1.3391    32.9179   224.5726 </r>
       <r>     1.5801    25.1508   230.6346 </r>
       <r>     1.8212    32.6938   238.5147 </r>
       <r>     2.0622    41.0458   248.4079 </r>
       <r>     2.3032    26.5462   254.8062 </r>
       <r>     2.5443    29.7669   261.9809 </r>
       <r>     2.7853    41.0727   271.8805 </r>
       <r>     3.0263    46.4036   283.0650 </r>
       <r>     3.2673    47.1186   294.4219 </r>
       <r>     3.5084    39.8096   304.0171 </r>
       <r>     3.7494     6.9066   305.6818 </r>
       <r>     3.9904    24.9971   311.7068 </r>
       <r>     4.2314    75.0701   329.8007 </r>
       <r>     4.4725    40.7855   339.6311 </r>
       <r>     4.7135     9.8282   342.0000 </r>
       <r>     4.9545     0.0000   342.0000 </r>
       <r>     5.1956     0.0000   342.0000 </r>
       <r>     5.4366     0.0000   342.0000 </r>
       <r>     5.6776     0.0000   342.0000 </r>
       <r>     5.9186     0.0000   342.0000 </r>
       <r>     6.1597     0.0000   342.0000 </r>
       <r>     6.4007     1.5794   342.3807 </r>
       <r>     6.6417     5.0784   343.6047 </r>
       <r>     6.8827    11.2880   346.3254 </r>
       <r>     7.1238    21.7031   351.5564 </r>
       <r>     7.3648    61.2982   366.3310 </r>
       <r>     7.6058    62.0402   381.2844 </r>
       <r>     7.8469    62.7177   396.4010 </r>
       <r>     8.0879    75.4503   414.5866 </r>
       <r>     8.3289    81.0400   434.1195 </r>
       <r>     8.5699    68.4484   450.6174 </r>
       <r>     8.8110    64.8212   466.2411 </r>
       <r>     9.0520    44.5466   476.9780 </r>
       <r>     9.2930    31.5858   484.5911 </r>
       <r>     9.5340     8.3154   486.5953 </r>
       <r>     9.7751     5.9215   488.0225 </r>
       <r>    10.0161    11.7727   490.8601 </r>
       <r>    10.2571    17.7183   495.1307 </r>
       <r>    10.4982    22.8366   500.6349 </r>
       <r>    10.7392    22.4749   506.0520 </r>
       <r>    10.9802    23.2072   511.6455 </r>
       <r>    11.2212    30.5096   518.9992 </r>
       <r>    11.4623    19.9909   523.8175 </r>
       <r>    11.7033    17.8015   528.1082 </r>
       <r>    11.9443    11.4348   530.8643 </r>
       <r>    12.1853    26.5688   537.2681 </r>
       <r>    12.4264    45.6111   548.2616 </r>
       <r>    12.6674    34.8340   556.6576 </r>
       <r>    12.9084    31.2410   564.1875 </r>
       <r>    13.1495    20.6483   569.1643 </r>
       <r>    13.3905    24.7827   575.1376 </r>
       <r>    13.6315    32.9790   583.0864 </r>
       <r>    13.8725    26.0641   589.3686 </r>
       <r>    14.1136    25.6585   595.5530 </r>
       <r>    14.3546    23.3062   601.1704 </r>
       <r>    14.5956    18.2721   605.5745 </r>
       <r>    14.8366     1.7654   606.0000 </r>
       <r>    15.0777     0.0000   606.0000 </r>
       <r>    15.3187     0.0000   606.0000 </r>
       <r>    15.5597     0.0000   606.0000 </r>
       <r>    15.8008     0.0000   606.0000 </r>
       <r>    16.0418     0.0000   606.0000 </r>
       <r>    16.2828     0.0000   606.0000 </r>
       <r>    16.5238     0.0000   606.0000 </r>
       <r>    16.7649     0.0000   606.0000 </r>
       <r>    17.0059     0.0000   606.0000 </r>
       <r>    17.2469     0.0000   606.0000 </r>
       <r>    17.4879     0.0000   606.0000 </r>
       <r>    17.7290     0.0000   606.0000 </r>
       <r>    17.9700     0.0000   606.0000 </r>
      </set>
     </set>
    </array>
   </total>
  </dos>
 </calculation>
 <structure name="finalpos" >
  <crystal>
   <varray name="basis" >
    <v>      11.77726974       0.00848871       0.06923316 </v>
    <v>      -0.03028248      11.77723386       0.06923316 </v>
    <v>      -2.02000231      -2.02666320      10.18574622 </v>
   </varray>
   <i name="volume">   1416.10551572 </i>
   <varray name="rec_basis" >
    <v>       0.08481023       0.00011906       0.01684296 </v>
    <v>      -0.00016014       0.08481016       0.01684296 </v>
    <v>      -0.00057537      -0.00057727       0.09794744 </v>
   </varray>
  </crystal>
  <varray name="positions" >
   <v>       0.20224939       0.24206952       0.83183419 </v>
   <v>       0.53558272       0.24206952       0.83183419 </v>
   <v>       0.86891606       0.24206952       0.83183419 </v>
   <v>       0.20224939       0.57540285       0.83183419 </v>
   <v>       0.53558272       0.57540285       0.83183419 </v>
   <v>       0.86891606       0.57540285       0.83183419 </v>
   <v>       0.20224939       0.90873619       0.83183419 </v>
   <v>       0.53558272       0.90873619       0.83183419 </v>
   <v>       0.86891606       0.90873619       0.83183419 </v>
   <v>       0.09126381       0.13108394       0.16816581 </v>
   <v>       0.42459715       0.13108394       0.16816581 </v>
   <v>       0.75793048       0.13108394       0.16816581 </v>
   <v>       0.09126381       0.46441728       0.16816581 </v>
   <v>       0.42459715       0.46441728       0.16816581 </v>
   <v>       0.75793048       0.46441728       0.16816581 </v>
   <v>       0.09126381       0.79775061       0.16816581 </v>
   <v>       0.42459715       0.79775061       0.16816581 </v>
   <v>       0.75793048       0.79775061       0.16816581 </v>
   <v>       0.26311007       0.13598816       0.19686089 </v>
   <v>       0.59644341       0.13598816       0.19686089 </v>
   <v>       0.92977674       0.13598816       0.19686089 </v>
   <v>       0.26311007       0.46932149       0.19686089 </v>
   <v>       0.59644341       0.46932149       0.19686089 </v>
   <v>       0.92977674       0.46932149       0.19686089 </v>
   <v>       0.26311007       0.80265483       0.19686089 </v>
   <v>       0.59644341       0.80265483       0.19686089 </v>
   <v>       0.92977674       0.80265483       0.19686089 </v>
   <v>       0.19734517       0.07022326       0.80313911 </v>
   <v>       0.53067851       0.07022326       0.80313911 </v>
   <v>       0.86401184       0.07022326       0.80313911 </v>
   <v>       0.19734517       0.40355659       0.80313911 </v>
   <v>       0.53067851       0.40355659       0.80313911 </v>
   <v>       0.86401184       0.40355659       0.80313911 </v>
   <v>       0.19734517       0.73688993       0.80313911 </v>
   <v>       0.53067851       0.73688993       0.80313911 </v>
   <v>       0.86401184       0.73688993       0.80313911 </v>
   <v>       0.00253935       0.20657296       0.62920335 </v>
   <v>       0.33587268       0.20657296       0.62920335 </v>
   <v>       0.66920601       0.20657296       0.62920335 </v>
   <v>       0.00253935       0.53990630       0.62920335 </v>
   <v>       0.33587268       0.53990630       0.62920335 </v>
   <v>       0.66920601       0.53990630       0.62920335 </v>
   <v>       0.00253935       0.87323963       0.62920335 </v>
   <v>       0.33587268       0.87323963       0.62920335 </v>
   <v>       0.66920601       0.87323963       0.62920335 </v>
   <v>       0.12676037       0.33079399       0.37079665 </v>
   <v>       0.46009370       0.33079399       0.37079665 </v>
   <v>       0.79342704       0.33079399       0.37079665 </v>
   <v>       0.12676037       0.66412732       0.37079665 </v>
   <v>       0.46009370       0.66412732       0.37079665 </v>
   <v>       0.79342704       0.66412732       0.37079665 </v>
   <v>       0.12676037       0.99746065       0.37079665 </v>
   <v>       0.46009370       0.99746065       0.37079665 </v>
   <v>       0.79342704       0.99746065       0.37079665 </v>
   <v>       0.06350899       0.26982435       0.00000000 </v>
   <v>       0.39684232       0.26982435       0.00000000 </v>
   <v>       0.73017565       0.26982435       0.00000000 </v>
   <v>       0.06350899       0.60315768       0.00000000 </v>
   <v>       0.39684232       0.60315768       0.00000000 </v>
   <v>       0.73017565       0.60315768       0.00000000 </v>
   <v>       0.06350899       0.93649101       0.00000000 </v>
   <v>       0.39684232       0.93649101       0.00000000 </v>
   <v>       0.73017565       0.93649101       0.00000000 </v>
   <v>       0.29027274       0.17130032       0.39352170 </v>
   <v>       0.62360607       0.17214940       0.39352170 </v>
   <v>       0.95693941       0.17214940       0.39352170 </v>
   <v>       0.29027274       0.50548273       0.39352170 </v>
   <v>       0.62360607       0.50548273       0.39352170 </v>
   <v>       0.95693941       0.50548273       0.39352170 </v>
   <v>       0.29027274       0.83881607       0.39352170 </v>
   <v>       0.62360607       0.83881607       0.39352170 </v>
   <v>       0.95693941       0.83881607       0.39352170 </v>
   <v>       0.16118393       0.04306059       0.60647830 </v>
   <v>       0.49451727       0.04306059       0.60647830 </v>
   <v>       0.82785060       0.04306059       0.60647830 </v>
   <v>       0.16118393       0.37639393       0.60647830 </v>
   <v>       0.49451727       0.37639393       0.60647830 </v>
   <v>       0.82785060       0.37639393       0.60647830 </v>
   <v>       0.16118393       0.70972726       0.60647830 </v>
   <v>       0.49451727       0.70972726       0.60647830 </v>
   <v>       0.82785060       0.70972726       0.60647830 </v>
   <v>       0.03761391       0.07731307       0.84542777 </v>
   <v>       0.37094724       0.07731307       0.84542777 </v>
   <v>       0.70428057       0.07731307       0.84542777 </v>
   <v>       0.03761391       0.41064640       0.84542777 </v>
   <v>       0.37094724       0.41064640       0.84542777 </v>
   <v>       0.70428057       0.41064640       0.84542777 </v>
   <v>       0.03761391       0.74397973       0.84542777 </v>
   <v>       0.37094724       0.74397973       0.84542777 </v>
   <v>       0.70428057       0.74397973       0.84542777 </v>
   <v>       0.25602027       0.29571943       0.15457223 </v>
   <v>       0.58935360       0.29571943       0.15457223 </v>
   <v>       0.92268693       0.29571943       0.15457223 </v>
   <v>       0.25602027       0.62905276       0.15457223 </v>
   <v>       0.58935360       0.62905276       0.15457223 </v>
   <v>       0.92268693       0.62905276       0.15457223 </v>
   <v>       0.25602027       0.96238609       0.15457223 </v>
   <v>       0.58935360       0.96238609       0.15457223 </v>
   <v>       0.92268693       0.96238609       0.15457223 </v>
  </varray>
 </structure>
</modeling>
