 144 144   0   0
  0.1325381E+02  0.1546422E-08  0.1214491E-08  0.1054520E-08  0.5000000E-15
  1.000000000000000E-004
  CAR 
 unknown system                          
     17.00858095    -54.87009767  301      5.08870008      1.00000000
    -54.870  0.0000E+00  0.0000E+00  0.0000E+00  0.0000E+00
    -54.631  0.0000E+00  0.0000E+00  0.0000E+00  0.0000E+00
    -54.391  0.0000E+00  0.0000E+00  0.0000E+00  0.0000E+00
    -54.151  0.0000E+00  0.0000E+00  0.0000E+00  0.0000E+00
    -53.912  0.0000E+00  0.0000E+00  0.0000E+00  0.0000E+00
    -53.672  0.0000E+00  0.0000E+00  0.0000E+00  0.0000E+00
    -53.433  0.0000E+00  0.0000E+00  0.0000E+00  0.0000E+00
    -53.193  0.0000E+00  0.0000E+00  0.0000E+00  0.0000E+00
    -52.953  0.0000E+00  0.0000E+00  0.0000E+00  0.0000E+00
    -52.714  0.0000E+00  0.0000E+00  0.0000E+00  0.0000E+00
    -52.474  0.0000E+00  0.0000E+00  0.0000E+00  0.0000E+00
    -52.235  0.0000E+00  0.0000E+00  0.0000E+00  0.0000E+00
    -51.995  0.0000E+00  0.0000E+00  0.0000E+00  0.0000E+00
    -51.755  0.3732E-03  0.0000E+00  0.8942E-04  0.0000E+00
    -51.516  0.4986E+02  0.0000E+00  0.1195E+02  0.0000E+00
    -51.276  0.8687E+02  0.0000E+00  0.3276E+02  0.0000E+00
    -51.037  0.1353E+02  0.0000E+00  0.3600E+02  0.0000E+00
    -50.797  0.0000E+00  0.0000E+00  0.3600E+02  0.0000E+00
    -50.557  0.0000E+00  0.0000E+00  0.3600E+02  0.0000E+00
    -50.318  0.1330E-03  0.0000E+00  0.3600E+02  0.0000E+00
    -50.078  0.6743E+02  0.0000E+00  0.5216E+02  0.0000E+00
    -49.839  0.2089E+03  0.0000E+00  0.1022E+03  0.0000E+00
    -49.599  0.2414E+02  0.0000E+00  0.1080E+03  0.0000E+00
    -49.359  0.0000E+00  0.0000E+00  0.1080E+03  0.0000E+00
    -49.120  0.0000E+00  0.0000E+00  0.1080E+03  0.0000E+00
    -48.880  0.0000E+00  0.0000E+00  0.1080E+03  0.0000E+00
    -48.641  0.0000E+00  0.0000E+00  0.1080E+03  0.0000E+00
    -48.401  0.0000E+00  0.0000E+00  0.1080E+03  0.0000E+00
    -48.161  0.0000E+00  0.0000E+00  0.1080E+03  0.0000E+00
    -47.922  0.0000E+00  0.0000E+00  0.1080E+03  0.0000E+00
    -47.682  0.0000E+00  0.0000E+00  0.1080E+03  0.0000E+00
    -47.443  0.0000E+00  0.0000E+00  0.1080E+03  0.0000E+00
    -47.203  0.0000E+00  0.0000E+00  0.1080E+03  0.0000E+00
    -46.963  0.0000E+00  0.6735E-01  0.1080E+03  0.1614E-01
    -46.724  0.0000E+00  0.5099E+02  0.1080E+03  0.1223E+02
    -46.484  0.0000E+00  0.9565E+02  0.1080E+03  0.3515E+02
    -46.245  0.0000E+00  0.1467E+03  0.1080E+03  0.7029E+02
    -46.005  0.0000E+00  0.1574E+03  0.1080E+03  0.1080E+03
    -45.765  0.0000E+00  0.4068E-02  0.1080E+03  0.1080E+03
    -45.526  0.0000E+00  0.0000E+00  0.1080E+03  0.1080E+03
    -45.286  0.0000E+00  0.0000E+00  0.1080E+03  0.1080E+03
    -45.047  0.0000E+00  0.0000E+00  0.1080E+03  0.1080E+03
    -44.807  0.0000E+00  0.0000E+00  0.1080E+03  0.1080E+03
    -44.567  0.0000E+00  0.0000E+00  0.1080E+03  0.1080E+03
    -44.328  0.0000E+00  0.0000E+00  0.1080E+03  0.1080E+03
    -44.088  0.0000E+00  0.0000E+00  0.1080E+03  0.1080E+03
    -43.849  0.0000E+00  0.0000E+00  0.1080E+03  0.1080E+03
    -43.609  0.0000E+00  0.0000E+00  0.1080E+03  0.1080E+03
    -43.370  0.0000E+00  0.0000E+00  0.1080E+03  0.1080E+03
    -43.130  0.0000E+00  0.0000E+00  0.1080E+03  0.1080E+03
    -42.890  0.0000E+00  0.0000E+00  0.1080E+03  0.1080E+03
    -42.651  0.0000E+00  0.0000E+00  0.1080E+03  0.1080E+03
    -42.411  0.0000E+00  0.0000E+00  0.1080E+03  0.1080E+03
    -42.172  0.0000E+00  0.0000E+00  0.1080E+03  0.1080E+03
    -41.932  0.0000E+00  0.0000E+00  0.1080E+03  0.1080E+03
    -41.692  0.0000E+00  0.0000E+00  0.1080E+03  0.1080E+03
    -41.453  0.0000E+00  0.0000E+00  0.1080E+03  0.1080E+03
    -41.213  0.0000E+00  0.0000E+00  0.1080E+03  0.1080E+03
    -40.974  0.0000E+00  0.0000E+00  0.1080E+03  0.1080E+03
    -40.734  0.1666E-08  0.5481E-09  0.1080E+03  0.1080E+03
    -40.494  0.2986E+02  0.2662E+02  0.1152E+03  0.1144E+03
    -40.255  0.4696E+02  0.5061E+02  0.1264E+03  0.1265E+03
    -40.015  0.9991E+02  0.9984E+02  0.1503E+03  0.1504E+03
    -39.776  0.2360E+02  0.2327E+02  0.1560E+03  0.1560E+03
    -39.536  0.0000E+00  0.0000E+00  0.1560E+03  0.1560E+03
    -39.296  0.0000E+00  0.0000E+00  0.1560E+03  0.1560E+03
    -39.057  0.0000E+00  0.0000E+00  0.1560E+03  0.1560E+03
    -38.817  0.0000E+00  0.0000E+00  0.1560E+03  0.1560E+03
    -38.578  0.0000E+00  0.0000E+00  0.1560E+03  0.1560E+03
    -38.338  0.0000E+00  0.0000E+00  0.1560E+03  0.1560E+03
    -38.098  0.0000E+00  0.0000E+00  0.1560E+03  0.1560E+03
    -37.859  0.0000E+00  0.0000E+00  0.1560E+03  0.1560E+03
    -37.619  0.0000E+00  0.0000E+00  0.1560E+03  0.1560E+03
    -37.380  0.0000E+00  0.0000E+00  0.1560E+03  0.1560E+03
    -37.140  0.0000E+00  0.0000E+00  0.1560E+03  0.1560E+03
    -36.900  0.0000E+00  0.0000E+00  0.1560E+03  0.1560E+03
    -36.661  0.0000E+00  0.0000E+00  0.1560E+03  0.1560E+03
    -36.421  0.0000E+00  0.0000E+00  0.1560E+03  0.1560E+03
    -36.182  0.0000E+00  0.0000E+00  0.1560E+03  0.1560E+03
    -35.942  0.0000E+00  0.0000E+00  0.1560E+03  0.1560E+03
    -35.702  0.0000E+00  0.0000E+00  0.1560E+03  0.1560E+03
    -35.463  0.0000E+00  0.0000E+00  0.1560E+03  0.1560E+03
    -35.223  0.0000E+00  0.0000E+00  0.1560E+03  0.1560E+03
    -34.984  0.0000E+00  0.0000E+00  0.1560E+03  0.1560E+03
    -34.744  0.0000E+00  0.0000E+00  0.1560E+03  0.1560E+03
    -34.504  0.0000E+00  0.0000E+00  0.1560E+03  0.1560E+03
    -34.265  0.0000E+00  0.0000E+00  0.1560E+03  0.1560E+03
    -34.025  0.0000E+00  0.0000E+00  0.1560E+03  0.1560E+03
    -33.786  0.0000E+00  0.0000E+00  0.1560E+03  0.1560E+03
    -33.546  0.0000E+00  0.0000E+00  0.1560E+03  0.1560E+03
    -33.306  0.0000E+00  0.0000E+00  0.1560E+03  0.1560E+03
    -33.067  0.0000E+00  0.0000E+00  0.1560E+03  0.1560E+03
    -32.827  0.0000E+00  0.0000E+00  0.1560E+03  0.1560E+03
    -32.588  0.0000E+00  0.0000E+00  0.1560E+03  0.1560E+03
    -32.348  0.0000E+00  0.0000E+00  0.1560E+03  0.1560E+03
    -32.109  0.0000E+00  0.0000E+00  0.1560E+03  0.1560E+03
    -31.869  0.0000E+00  0.0000E+00  0.1560E+03  0.1560E+03
    -31.629  0.0000E+00  0.0000E+00  0.1560E+03  0.1560E+03
    -31.390  0.0000E+00  0.0000E+00  0.1560E+03  0.1560E+03
    -31.150  0.0000E+00  0.0000E+00  0.1560E+03  0.1560E+03
    -30.911  0.0000E+00  0.0000E+00  0.1560E+03  0.1560E+03
    -30.671  0.0000E+00  0.0000E+00  0.1560E+03  0.1560E+03
    -30.431  0.0000E+00  0.0000E+00  0.1560E+03  0.1560E+03
    -30.192  0.0000E+00  0.0000E+00  0.1560E+03  0.1560E+03
    -29.952  0.0000E+00  0.0000E+00  0.1560E+03  0.1560E+03
    -29.713  0.0000E+00  0.0000E+00  0.1560E+03  0.1560E+03
    -29.473  0.0000E+00  0.0000E+00  0.1560E+03  0.1560E+03
    -29.233  0.0000E+00  0.0000E+00  0.1560E+03  0.1560E+03
    -28.994  0.0000E+00  0.0000E+00  0.1560E+03  0.1560E+03
    -28.754  0.0000E+00  0.0000E+00  0.1560E+03  0.1560E+03
    -28.515  0.0000E+00  0.0000E+00  0.1560E+03  0.1560E+03
    -28.275  0.0000E+00  0.0000E+00  0.1560E+03  0.1560E+03
    -28.035  0.0000E+00  0.0000E+00  0.1560E+03  0.1560E+03
    -27.796  0.0000E+00  0.0000E+00  0.1560E+03  0.1560E+03
    -27.556  0.0000E+00  0.0000E+00  0.1560E+03  0.1560E+03
    -27.317  0.0000E+00  0.0000E+00  0.1560E+03  0.1560E+03
    -27.077  0.0000E+00  0.0000E+00  0.1560E+03  0.1560E+03
    -26.837  0.0000E+00  0.0000E+00  0.1560E+03  0.1560E+03
    -26.598  0.0000E+00  0.0000E+00  0.1560E+03  0.1560E+03
    -26.358  0.0000E+00  0.0000E+00  0.1560E+03  0.1560E+03
    -26.119  0.0000E+00  0.0000E+00  0.1560E+03  0.1560E+03
    -25.879  0.0000E+00  0.0000E+00  0.1560E+03  0.1560E+03
    -25.639  0.0000E+00  0.0000E+00  0.1560E+03  0.1560E+03
    -25.400  0.0000E+00  0.0000E+00  0.1560E+03  0.1560E+03
    -25.160  0.0000E+00  0.0000E+00  0.1560E+03  0.1560E+03
    -24.921  0.0000E+00  0.0000E+00  0.1560E+03  0.1560E+03
    -24.681  0.0000E+00  0.0000E+00  0.1560E+03  0.1560E+03
    -24.441  0.0000E+00  0.0000E+00  0.1560E+03  0.1560E+03
    -24.202  0.0000E+00  0.0000E+00  0.1560E+03  0.1560E+03
    -23.962  0.0000E+00  0.0000E+00  0.1560E+03  0.1560E+03
    -23.723  0.0000E+00  0.0000E+00  0.1560E+03  0.1560E+03
    -23.483  0.0000E+00  0.0000E+00  0.1560E+03  0.1560E+03
    -23.243  0.0000E+00  0.0000E+00  0.1560E+03  0.1560E+03
    -23.004  0.0000E+00  0.0000E+00  0.1560E+03  0.1560E+03
    -22.764  0.0000E+00  0.0000E+00  0.1560E+03  0.1560E+03
    -22.525  0.0000E+00  0.0000E+00  0.1560E+03  0.1560E+03
    -22.285  0.0000E+00  0.0000E+00  0.1560E+03  0.1560E+03
    -22.046  0.0000E+00  0.0000E+00  0.1560E+03  0.1560E+03
    -21.806  0.0000E+00  0.0000E+00  0.1560E+03  0.1560E+03
    -21.566  0.0000E+00  0.0000E+00  0.1560E+03  0.1560E+03
    -21.327  0.0000E+00  0.0000E+00  0.1560E+03  0.1560E+03
    -21.087  0.0000E+00  0.0000E+00  0.1560E+03  0.1560E+03
    -20.848  0.0000E+00  0.0000E+00  0.1560E+03  0.1560E+03
    -20.608  0.0000E+00  0.0000E+00  0.1560E+03  0.1560E+03
    -20.368  0.0000E+00  0.0000E+00  0.1560E+03  0.1560E+03
    -20.129  0.0000E+00  0.0000E+00  0.1560E+03  0.1560E+03
    -19.889  0.0000E+00  0.0000E+00  0.1560E+03  0.1560E+03
    -19.650  0.0000E+00  0.0000E+00  0.1560E+03  0.1560E+03
    -19.410  0.0000E+00  0.0000E+00  0.1560E+03  0.1560E+03
    -19.170  0.0000E+00  0.0000E+00  0.1560E+03  0.1560E+03
    -18.931  0.0000E+00  0.0000E+00  0.1560E+03  0.1560E+03
    -18.691  0.0000E+00  0.0000E+00  0.1560E+03  0.1560E+03
    -18.452  0.0000E+00  0.0000E+00  0.1560E+03  0.1560E+03
    -18.212  0.0000E+00  0.0000E+00  0.1560E+03  0.1560E+03
    -17.972  0.0000E+00  0.0000E+00  0.1560E+03  0.1560E+03
    -17.733  0.0000E+00  0.0000E+00  0.1560E+03  0.1560E+03
    -17.493  0.0000E+00  0.0000E+00  0.1560E+03  0.1560E+03
    -17.254  0.0000E+00  0.0000E+00  0.1560E+03  0.1560E+03
    -17.014  0.0000E+00  0.0000E+00  0.1560E+03  0.1560E+03
    -16.774  0.0000E+00  0.0000E+00  0.1560E+03  0.1560E+03
    -16.535  0.0000E+00  0.0000E+00  0.1560E+03  0.1560E+03
    -16.295  0.0000E+00  0.0000E+00  0.1560E+03  0.1560E+03
    -16.056  0.0000E+00  0.0000E+00  0.1560E+03  0.1560E+03
    -15.816  0.0000E+00  0.0000E+00  0.1560E+03  0.1560E+03
    -15.576  0.0000E+00  0.0000E+00  0.1560E+03  0.1560E+03
    -15.337  0.0000E+00  0.0000E+00  0.1560E+03  0.1560E+03
    -15.097  0.0000E+00  0.0000E+00  0.1560E+03  0.1560E+03
    -14.858  0.0000E+00  0.0000E+00  0.1560E+03  0.1560E+03
    -14.618  0.0000E+00  0.0000E+00  0.1560E+03  0.1560E+03
    -14.378  0.0000E+00  0.0000E+00  0.1560E+03  0.1560E+03
    -14.139  0.0000E+00  0.0000E+00  0.1560E+03  0.1560E+03
    -13.899  0.1262E-02  0.0000E+00  0.1560E+03  0.1560E+03
    -13.660  0.2220E+02  0.5902E-13  0.1613E+03  0.1560E+03
    -13.420  0.2770E+02  0.1806E+01  0.1680E+03  0.1564E+03
    -13.180  0.9055E+01  0.4448E+02  0.1701E+03  0.1671E+03
    -12.941  0.3146E+02  0.4544E+01  0.1777E+03  0.1682E+03
    -12.701  0.9748E+01  0.4219E+02  0.1800E+03  0.1783E+03
    -12.462  0.0000E+00  0.7152E+01  0.1800E+03  0.1800E+03
    -12.222  0.0000E+00  0.0000E+00  0.1800E+03  0.1800E+03
    -11.982  0.0000E+00  0.0000E+00  0.1800E+03  0.1800E+03
    -11.743  0.0000E+00  0.0000E+00  0.1800E+03  0.1800E+03
    -11.503  0.0000E+00  0.0000E+00  0.1800E+03  0.1800E+03
    -11.264  0.0000E+00  0.0000E+00  0.1800E+03  0.1800E+03
    -11.024  0.0000E+00  0.0000E+00  0.1800E+03  0.1800E+03
    -10.785  0.0000E+00  0.0000E+00  0.1800E+03  0.1800E+03
    -10.545  0.0000E+00  0.0000E+00  0.1800E+03  0.1800E+03
    -10.305  0.0000E+00  0.0000E+00  0.1800E+03  0.1800E+03
    -10.066  0.0000E+00  0.0000E+00  0.1800E+03  0.1800E+03
     -9.826  0.0000E+00  0.0000E+00  0.1800E+03  0.1800E+03
     -9.587  0.0000E+00  0.0000E+00  0.1800E+03  0.1800E+03
     -9.347  0.0000E+00  0.0000E+00  0.1800E+03  0.1800E+03
     -9.107  0.0000E+00  0.0000E+00  0.1800E+03  0.1800E+03
     -8.868  0.0000E+00  0.0000E+00  0.1800E+03  0.1800E+03
     -8.628  0.0000E+00  0.0000E+00  0.1800E+03  0.1800E+03
     -8.389  0.0000E+00  0.0000E+00  0.1800E+03  0.1800E+03
     -8.149  0.0000E+00  0.0000E+00  0.1800E+03  0.1800E+03
     -7.909  0.2215E-02  0.0000E+00  0.1800E+03  0.1800E+03
     -7.670  0.9387E+01  0.1660E-01  0.1822E+03  0.1800E+03
     -7.430  0.2313E+02  0.1197E+02  0.1878E+03  0.1829E+03
     -7.191  0.5574E+02  0.2863E+02  0.2011E+03  0.1897E+03
     -6.951  0.5805E+02  0.5985E+02  0.2151E+03  0.2041E+03
     -6.711  0.3947E+01  0.4648E+02  0.2160E+03  0.2152E+03
     -6.472  0.0000E+00  0.3306E+01  0.2160E+03  0.2160E+03
     -6.232  0.0000E+00  0.0000E+00  0.2160E+03  0.2160E+03
     -5.993  0.0000E+00  0.0000E+00  0.2160E+03  0.2160E+03
     -5.753  0.0000E+00  0.0000E+00  0.2160E+03  0.2160E+03
     -5.513  0.0000E+00  0.0000E+00  0.2160E+03  0.2160E+03
     -5.274  0.0000E+00  0.0000E+00  0.2160E+03  0.2160E+03
     -5.034  0.0000E+00  0.0000E+00  0.2160E+03  0.2160E+03
     -4.795  0.0000E+00  0.0000E+00  0.2160E+03  0.2160E+03
     -4.555  0.0000E+00  0.0000E+00  0.2160E+03  0.2160E+03
     -4.315  0.0000E+00  0.0000E+00  0.2160E+03  0.2160E+03
     -4.076  0.0000E+00  0.0000E+00  0.2160E+03  0.2160E+03
     -3.836  0.0000E+00  0.0000E+00  0.2160E+03  0.2160E+03
     -3.597  0.0000E+00  0.0000E+00  0.2160E+03  0.2160E+03
     -3.357  0.0000E+00  0.0000E+00  0.2160E+03  0.2160E+03
     -3.117  0.0000E+00  0.0000E+00  0.2160E+03  0.2160E+03
     -2.878  0.1666E-13  0.0000E+00  0.2160E+03  0.2160E+03
     -2.638  0.8438E+00  0.0000E+00  0.2162E+03  0.2160E+03
     -2.399  0.1029E+02  0.0000E+00  0.2187E+03  0.2160E+03
     -2.159  0.2050E+02  0.0000E+00  0.2236E+03  0.2160E+03
     -1.919  0.1837E+01  0.0000E+00  0.2240E+03  0.2160E+03
     -1.680  0.3457E+02  0.0000E+00  0.2323E+03  0.2160E+03
     -1.440  0.1950E+02  0.4376E-15  0.2370E+03  0.2160E+03
     -1.201  0.4426E+02  0.8721E-01  0.2476E+03  0.2160E+03
     -0.961  0.4959E+02  0.4414E+01  0.2595E+03  0.2171E+03
     -0.721  0.7498E+02  0.1410E+02  0.2774E+03  0.2205E+03
     -0.482  0.1033E+03  0.1532E+02  0.3022E+03  0.2241E+03
     -0.242  0.8555E+02  0.1956E+02  0.3227E+03  0.2288E+03
     -0.003  0.1104E+03  0.4125E+02  0.3491E+03  0.2387E+03
      0.237  0.6977E+02  0.3397E+02  0.3658E+03  0.2468E+03
      0.476  0.3826E+02  0.4211E+02  0.3750E+03  0.2569E+03
      0.716  0.4571E+02  0.3374E+02  0.3860E+03  0.2650E+03
      0.956  0.4867E+02  0.5301E+02  0.3976E+03  0.2777E+03
      1.195  0.5552E+02  0.6038E+02  0.4109E+03  0.2922E+03
      1.435  0.6437E+02  0.4442E+02  0.4264E+03  0.3028E+03
      1.674  0.1008E+03  0.4006E+02  0.4505E+03  0.3124E+03
      1.914  0.5243E+02  0.3843E+02  0.4631E+03  0.3216E+03
      2.154  0.3877E+02  0.3738E+02  0.4724E+03  0.3306E+03
      2.393  0.4655E+02  0.3828E+02  0.4835E+03  0.3398E+03
      2.633  0.4783E+02  0.4941E+02  0.4950E+03  0.3516E+03
      2.872  0.4349E+02  0.6289E+02  0.5054E+03  0.3667E+03
      3.112  0.4016E+02  0.5879E+02  0.5150E+03  0.3807E+03
      3.352  0.4746E+02  0.4795E+02  0.5264E+03  0.3922E+03
      3.591  0.5247E+02  0.2988E+02  0.5390E+03  0.3994E+03
      3.831  0.4541E+02  0.6140E+02  0.5498E+03  0.4141E+03
      4.070  0.3198E+02  0.7330E+02  0.5575E+03  0.4317E+03
      4.310  0.4244E+02  0.1370E+01  0.5677E+03  0.4320E+03
      4.550  0.2362E+02  0.0000E+00  0.5733E+03  0.4320E+03
      4.789  0.1023E+02  0.0000E+00  0.5758E+03  0.4320E+03
      5.029  0.8959E+00  0.0000E+00  0.5760E+03  0.4320E+03
      5.268  0.0000E+00  0.0000E+00  0.5760E+03  0.4320E+03
      5.508  0.0000E+00  0.0000E+00  0.5760E+03  0.4320E+03
      5.748  0.0000E+00  0.0000E+00  0.5760E+03  0.4320E+03
      5.987  0.0000E+00  0.4925E-11  0.5760E+03  0.4320E+03
      6.227  0.0000E+00  0.1438E+00  0.5760E+03  0.4320E+03
      6.466  0.0000E+00  0.8132E+01  0.5760E+03  0.4340E+03
      6.706  0.0000E+00  0.3023E+02  0.5760E+03  0.4412E+03
      6.946  0.7284E-12  0.4338E+02  0.5760E+03  0.4516E+03
      7.185  0.1070E+00  0.7321E+02  0.5760E+03  0.4692E+03
      7.425  0.1312E+00  0.8086E+02  0.5761E+03  0.4885E+03
      7.664  0.8944E+00  0.6538E+02  0.5763E+03  0.5042E+03
      7.904  0.3502E+01  0.8791E+02  0.5771E+03  0.5253E+03
      8.144  0.4266E+01  0.7127E+02  0.5781E+03  0.5423E+03
      8.383  0.7027E+01  0.5445E+02  0.5798E+03  0.5554E+03
      8.623  0.1635E+02  0.3722E+02  0.5837E+03  0.5643E+03
      8.862  0.2528E+02  0.3917E+02  0.5898E+03  0.5737E+03
      9.102  0.1924E+02  0.1938E+02  0.5944E+03  0.5783E+03
      9.342  0.2537E+02  0.1389E+02  0.6005E+03  0.5817E+03
      9.581  0.3124E+02  0.2058E+02  0.6080E+03  0.5866E+03
      9.821  0.2662E+02  0.2999E+02  0.6143E+03  0.5938E+03
     10.060  0.2966E+02  0.2655E+02  0.6214E+03  0.6001E+03
     10.300  0.2277E+02  0.3473E+02  0.6269E+03  0.6085E+03
     10.539  0.2039E+02  0.3545E+02  0.6318E+03  0.6169E+03
     10.779  0.2852E+02  0.2795E+02  0.6386E+03  0.6236E+03
     11.019  0.3897E+02  0.2244E+02  0.6480E+03  0.6290E+03
     11.258  0.3941E+02  0.2158E+02  0.6574E+03  0.6342E+03
     11.498  0.3726E+02  0.3228E+02  0.6663E+03  0.6419E+03
     11.737  0.4485E+02  0.3876E+02  0.6771E+03  0.6512E+03
     11.977  0.3853E+02  0.4259E+02  0.6863E+03  0.6614E+03
     12.217  0.3853E+02  0.5197E+02  0.6955E+03  0.6739E+03
     12.456  0.3989E+02  0.4682E+02  0.7051E+03  0.6851E+03
     12.696  0.3653E+02  0.3596E+02  0.7139E+03  0.6937E+03
     12.935  0.3440E+02  0.4127E+02  0.7221E+03  0.7036E+03
     13.175  0.2284E+02  0.3975E+02  0.7276E+03  0.7131E+03
     13.415  0.1808E+01  0.3421E+02  0.7280E+03  0.7213E+03
     13.654  0.0000E+00  0.2401E+02  0.7280E+03  0.7271E+03
     13.894  0.0000E+00  0.3889E+01  0.7280E+03  0.7280E+03
     14.133  0.0000E+00  0.3743E-05  0.7280E+03  0.7280E+03
     14.373  0.0000E+00  0.0000E+00  0.7280E+03  0.7280E+03
     14.613  0.0000E+00  0.0000E+00  0.7280E+03  0.7280E+03
     14.852  0.0000E+00  0.0000E+00  0.7280E+03  0.7280E+03
     15.092  0.0000E+00  0.0000E+00  0.7280E+03  0.7280E+03
     15.331  0.0000E+00  0.0000E+00  0.7280E+03  0.7280E+03
     15.571  0.0000E+00  0.0000E+00  0.7280E+03  0.7280E+03
     15.811  0.0000E+00  0.0000E+00  0.7280E+03  0.7280E+03
     16.050  0.0000E+00  0.0000E+00  0.7280E+03  0.7280E+03
     16.290  0.0000E+00  0.0000E+00  0.7280E+03  0.7280E+03
     16.529  0.0000E+00  0.0000E+00  0.7280E+03  0.7280E+03
     16.769  0.0000E+00  0.0000E+00  0.7280E+03  0.7280E+03
     17.009  0.0000E+00  0.0000E+00  0.7280E+03  0.7280E+03
