  99  99   0   0
  0.1430410E+02  0.1177748E-08  0.1177748E-08  0.1058004E-08  0.5000000E-15
  1.000000000000000E-004
  CAR 
 unknown system                          
     17.95937629    -54.34163998  301      5.24644759      1.00000000
    -54.342  0.0000E+00  0.0000E+00  0.0000E+00  0.0000E+00
    -54.101  0.0000E+00  0.0000E+00  0.0000E+00  0.0000E+00
    -53.860  0.0000E+00  0.0000E+00  0.0000E+00  0.0000E+00
    -53.619  0.0000E+00  0.0000E+00  0.0000E+00  0.0000E+00
    -53.378  0.0000E+00  0.0000E+00  0.0000E+00  0.0000E+00
    -53.137  0.0000E+00  0.0000E+00  0.0000E+00  0.0000E+00
    -52.896  0.0000E+00  0.0000E+00  0.0000E+00  0.0000E+00
    -52.655  0.0000E+00  0.0000E+00  0.0000E+00  0.0000E+00
    -52.414  0.0000E+00  0.0000E+00  0.0000E+00  0.0000E+00
    -52.173  0.0000E+00  0.0000E+00  0.0000E+00  0.0000E+00
    -51.932  0.0000E+00  0.0000E+00  0.0000E+00  0.0000E+00
    -51.691  0.0000E+00  0.0000E+00  0.0000E+00  0.0000E+00
    -51.450  0.0000E+00  0.0000E+00  0.0000E+00  0.0000E+00
    -51.209  0.2901E-03  0.0000E+00  0.6992E-04  0.0000E+00
    -50.968  0.1466E+03  0.0000E+00  0.3533E+02  0.0000E+00
    -50.727  0.2766E+01  0.0000E+00  0.3600E+02  0.0000E+00
    -50.486  0.0000E+00  0.0000E+00  0.3600E+02  0.0000E+00
    -50.245  0.0000E+00  0.0000E+00  0.3600E+02  0.0000E+00
    -50.004  0.0000E+00  0.0000E+00  0.3600E+02  0.0000E+00
    -49.763  0.1425E+01  0.0000E+00  0.3634E+02  0.0000E+00
    -49.522  0.2673E+03  0.0000E+00  0.1008E+03  0.0000E+00
    -49.281  0.2998E+02  0.0000E+00  0.1080E+03  0.0000E+00
    -49.040  0.0000E+00  0.0000E+00  0.1080E+03  0.0000E+00
    -48.799  0.0000E+00  0.0000E+00  0.1080E+03  0.0000E+00
    -48.558  0.0000E+00  0.0000E+00  0.1080E+03  0.0000E+00
    -48.317  0.0000E+00  0.0000E+00  0.1080E+03  0.0000E+00
    -48.076  0.0000E+00  0.0000E+00  0.1080E+03  0.0000E+00
    -47.835  0.0000E+00  0.0000E+00  0.1080E+03  0.0000E+00
    -47.594  0.0000E+00  0.0000E+00  0.1080E+03  0.0000E+00
    -47.353  0.0000E+00  0.0000E+00  0.1080E+03  0.0000E+00
    -47.112  0.0000E+00  0.0000E+00  0.1080E+03  0.0000E+00
    -46.871  0.0000E+00  0.0000E+00  0.1080E+03  0.0000E+00
    -46.630  0.0000E+00  0.0000E+00  0.1080E+03  0.0000E+00
    -46.389  0.0000E+00  0.3031E+00  0.1080E+03  0.7304E-01
    -46.148  0.0000E+00  0.1490E+03  0.1080E+03  0.3599E+02
    -45.907  0.0000E+00  0.6672E+02  0.1080E+03  0.5207E+02
    -45.666  0.0000E+00  0.2321E+03  0.1080E+03  0.1080E+03
    -45.425  0.0000E+00  0.0000E+00  0.1080E+03  0.1080E+03
    -45.184  0.0000E+00  0.0000E+00  0.1080E+03  0.1080E+03
    -44.943  0.0000E+00  0.0000E+00  0.1080E+03  0.1080E+03
    -44.702  0.0000E+00  0.0000E+00  0.1080E+03  0.1080E+03
    -44.461  0.0000E+00  0.0000E+00  0.1080E+03  0.1080E+03
    -44.219  0.0000E+00  0.0000E+00  0.1080E+03  0.1080E+03
    -43.978  0.0000E+00  0.0000E+00  0.1080E+03  0.1080E+03
    -43.737  0.0000E+00  0.0000E+00  0.1080E+03  0.1080E+03
    -43.496  0.0000E+00  0.0000E+00  0.1080E+03  0.1080E+03
    -43.255  0.0000E+00  0.0000E+00  0.1080E+03  0.1080E+03
    -43.014  0.0000E+00  0.0000E+00  0.1080E+03  0.1080E+03
    -42.773  0.0000E+00  0.0000E+00  0.1080E+03  0.1080E+03
    -42.532  0.0000E+00  0.0000E+00  0.1080E+03  0.1080E+03
    -42.291  0.0000E+00  0.0000E+00  0.1080E+03  0.1080E+03
    -42.050  0.0000E+00  0.0000E+00  0.1080E+03  0.1080E+03
    -41.809  0.0000E+00  0.0000E+00  0.1080E+03  0.1080E+03
    -41.568  0.0000E+00  0.0000E+00  0.1080E+03  0.1080E+03
    -41.327  0.0000E+00  0.0000E+00  0.1080E+03  0.1080E+03
    -41.086  0.0000E+00  0.0000E+00  0.1080E+03  0.1080E+03
    -40.845  0.0000E+00  0.0000E+00  0.1080E+03  0.1080E+03
    -40.604  0.0000E+00  0.0000E+00  0.1080E+03  0.1080E+03
    -40.363  0.0000E+00  0.0000E+00  0.1080E+03  0.1080E+03
    -40.122  0.8981E-11  0.5808E-11  0.1080E+03  0.1080E+03
    -39.881  0.2195E+02  0.2047E+02  0.1133E+03  0.1129E+03
    -39.640  0.5274E+02  0.5422E+02  0.1260E+03  0.1260E+03
    -39.399  0.0000E+00  0.0000E+00  0.1260E+03  0.1260E+03
    -39.158  0.0000E+00  0.0000E+00  0.1260E+03  0.1260E+03
    -38.917  0.0000E+00  0.0000E+00  0.1260E+03  0.1260E+03
    -38.676  0.0000E+00  0.0000E+00  0.1260E+03  0.1260E+03
    -38.435  0.0000E+00  0.0000E+00  0.1260E+03  0.1260E+03
    -38.194  0.0000E+00  0.0000E+00  0.1260E+03  0.1260E+03
    -37.953  0.0000E+00  0.0000E+00  0.1260E+03  0.1260E+03
    -37.712  0.0000E+00  0.0000E+00  0.1260E+03  0.1260E+03
    -37.471  0.0000E+00  0.0000E+00  0.1260E+03  0.1260E+03
    -37.230  0.0000E+00  0.0000E+00  0.1260E+03  0.1260E+03
    -36.989  0.0000E+00  0.0000E+00  0.1260E+03  0.1260E+03
    -36.748  0.0000E+00  0.0000E+00  0.1260E+03  0.1260E+03
    -36.507  0.0000E+00  0.0000E+00  0.1260E+03  0.1260E+03
    -36.266  0.0000E+00  0.0000E+00  0.1260E+03  0.1260E+03
    -36.025  0.0000E+00  0.0000E+00  0.1260E+03  0.1260E+03
    -35.784  0.0000E+00  0.0000E+00  0.1260E+03  0.1260E+03
    -35.543  0.0000E+00  0.0000E+00  0.1260E+03  0.1260E+03
    -35.302  0.0000E+00  0.0000E+00  0.1260E+03  0.1260E+03
    -35.061  0.0000E+00  0.0000E+00  0.1260E+03  0.1260E+03
    -34.820  0.0000E+00  0.0000E+00  0.1260E+03  0.1260E+03
    -34.579  0.0000E+00  0.0000E+00  0.1260E+03  0.1260E+03
    -34.338  0.0000E+00  0.0000E+00  0.1260E+03  0.1260E+03
    -34.097  0.0000E+00  0.0000E+00  0.1260E+03  0.1260E+03
    -33.856  0.0000E+00  0.0000E+00  0.1260E+03  0.1260E+03
    -33.615  0.0000E+00  0.0000E+00  0.1260E+03  0.1260E+03
    -33.374  0.0000E+00  0.0000E+00  0.1260E+03  0.1260E+03
    -33.133  0.0000E+00  0.0000E+00  0.1260E+03  0.1260E+03
    -32.892  0.0000E+00  0.0000E+00  0.1260E+03  0.1260E+03
    -32.651  0.0000E+00  0.0000E+00  0.1260E+03  0.1260E+03
    -32.410  0.0000E+00  0.0000E+00  0.1260E+03  0.1260E+03
    -32.169  0.0000E+00  0.0000E+00  0.1260E+03  0.1260E+03
    -31.928  0.0000E+00  0.0000E+00  0.1260E+03  0.1260E+03
    -31.687  0.0000E+00  0.0000E+00  0.1260E+03  0.1260E+03
    -31.446  0.0000E+00  0.0000E+00  0.1260E+03  0.1260E+03
    -31.205  0.0000E+00  0.0000E+00  0.1260E+03  0.1260E+03
    -30.964  0.0000E+00  0.0000E+00  0.1260E+03  0.1260E+03
    -30.723  0.0000E+00  0.0000E+00  0.1260E+03  0.1260E+03
    -30.482  0.0000E+00  0.0000E+00  0.1260E+03  0.1260E+03
    -30.241  0.0000E+00  0.0000E+00  0.1260E+03  0.1260E+03
    -30.000  0.0000E+00  0.0000E+00  0.1260E+03  0.1260E+03
    -29.759  0.0000E+00  0.0000E+00  0.1260E+03  0.1260E+03
    -29.518  0.0000E+00  0.0000E+00  0.1260E+03  0.1260E+03
    -29.277  0.0000E+00  0.0000E+00  0.1260E+03  0.1260E+03
    -29.036  0.0000E+00  0.0000E+00  0.1260E+03  0.1260E+03
    -28.795  0.0000E+00  0.0000E+00  0.1260E+03  0.1260E+03
    -28.554  0.0000E+00  0.0000E+00  0.1260E+03  0.1260E+03
    -28.313  0.0000E+00  0.0000E+00  0.1260E+03  0.1260E+03
    -28.072  0.0000E+00  0.0000E+00  0.1260E+03  0.1260E+03
    -27.831  0.0000E+00  0.0000E+00  0.1260E+03  0.1260E+03
    -27.590  0.0000E+00  0.0000E+00  0.1260E+03  0.1260E+03
    -27.349  0.0000E+00  0.0000E+00  0.1260E+03  0.1260E+03
    -27.108  0.0000E+00  0.0000E+00  0.1260E+03  0.1260E+03
    -26.867  0.0000E+00  0.0000E+00  0.1260E+03  0.1260E+03
    -26.626  0.0000E+00  0.0000E+00  0.1260E+03  0.1260E+03
    -26.385  0.0000E+00  0.0000E+00  0.1260E+03  0.1260E+03
    -26.144  0.0000E+00  0.0000E+00  0.1260E+03  0.1260E+03
    -25.903  0.0000E+00  0.0000E+00  0.1260E+03  0.1260E+03
    -25.662  0.0000E+00  0.0000E+00  0.1260E+03  0.1260E+03
    -25.421  0.0000E+00  0.0000E+00  0.1260E+03  0.1260E+03
    -25.180  0.0000E+00  0.0000E+00  0.1260E+03  0.1260E+03
    -24.939  0.0000E+00  0.0000E+00  0.1260E+03  0.1260E+03
    -24.698  0.0000E+00  0.0000E+00  0.1260E+03  0.1260E+03
    -24.457  0.0000E+00  0.0000E+00  0.1260E+03  0.1260E+03
    -24.216  0.0000E+00  0.0000E+00  0.1260E+03  0.1260E+03
    -23.975  0.0000E+00  0.0000E+00  0.1260E+03  0.1260E+03
    -23.734  0.0000E+00  0.0000E+00  0.1260E+03  0.1260E+03
    -23.493  0.0000E+00  0.0000E+00  0.1260E+03  0.1260E+03
    -23.252  0.0000E+00  0.0000E+00  0.1260E+03  0.1260E+03
    -23.011  0.0000E+00  0.0000E+00  0.1260E+03  0.1260E+03
    -22.770  0.0000E+00  0.0000E+00  0.1260E+03  0.1260E+03
    -22.529  0.0000E+00  0.0000E+00  0.1260E+03  0.1260E+03
    -22.288  0.0000E+00  0.0000E+00  0.1260E+03  0.1260E+03
    -22.047  0.0000E+00  0.0000E+00  0.1260E+03  0.1260E+03
    -21.806  0.0000E+00  0.0000E+00  0.1260E+03  0.1260E+03
    -21.565  0.0000E+00  0.0000E+00  0.1260E+03  0.1260E+03
    -21.324  0.0000E+00  0.0000E+00  0.1260E+03  0.1260E+03
    -21.083  0.0000E+00  0.0000E+00  0.1260E+03  0.1260E+03
    -20.842  0.0000E+00  0.0000E+00  0.1260E+03  0.1260E+03
    -20.601  0.0000E+00  0.0000E+00  0.1260E+03  0.1260E+03
    -20.360  0.0000E+00  0.0000E+00  0.1260E+03  0.1260E+03
    -20.119  0.0000E+00  0.0000E+00  0.1260E+03  0.1260E+03
    -19.878  0.0000E+00  0.0000E+00  0.1260E+03  0.1260E+03
    -19.637  0.0000E+00  0.0000E+00  0.1260E+03  0.1260E+03
    -19.396  0.0000E+00  0.0000E+00  0.1260E+03  0.1260E+03
    -19.155  0.0000E+00  0.0000E+00  0.1260E+03  0.1260E+03
    -18.914  0.0000E+00  0.0000E+00  0.1260E+03  0.1260E+03
    -18.673  0.0000E+00  0.0000E+00  0.1260E+03  0.1260E+03
    -18.432  0.0000E+00  0.0000E+00  0.1260E+03  0.1260E+03
    -18.191  0.0000E+00  0.0000E+00  0.1260E+03  0.1260E+03
    -17.950  0.0000E+00  0.0000E+00  0.1260E+03  0.1260E+03
    -17.709  0.0000E+00  0.0000E+00  0.1260E+03  0.1260E+03
    -17.468  0.0000E+00  0.0000E+00  0.1260E+03  0.1260E+03
    -17.227  0.0000E+00  0.0000E+00  0.1260E+03  0.1260E+03
    -16.986  0.0000E+00  0.0000E+00  0.1260E+03  0.1260E+03
    -16.745  0.0000E+00  0.0000E+00  0.1260E+03  0.1260E+03
    -16.504  0.0000E+00  0.0000E+00  0.1260E+03  0.1260E+03
    -16.263  0.0000E+00  0.0000E+00  0.1260E+03  0.1260E+03
    -16.022  0.0000E+00  0.0000E+00  0.1260E+03  0.1260E+03
    -15.781  0.0000E+00  0.0000E+00  0.1260E+03  0.1260E+03
    -15.540  0.0000E+00  0.0000E+00  0.1260E+03  0.1260E+03
    -15.299  0.0000E+00  0.0000E+00  0.1260E+03  0.1260E+03
    -15.058  0.0000E+00  0.0000E+00  0.1260E+03  0.1260E+03
    -14.817  0.0000E+00  0.0000E+00  0.1260E+03  0.1260E+03
    -14.576  0.0000E+00  0.0000E+00  0.1260E+03  0.1260E+03
    -14.335  0.0000E+00  0.0000E+00  0.1260E+03  0.1260E+03
    -14.094  0.0000E+00  0.0000E+00  0.1260E+03  0.1260E+03
    -13.853  0.0000E+00  0.0000E+00  0.1260E+03  0.1260E+03
    -13.612  0.0000E+00  0.0000E+00  0.1260E+03  0.1260E+03
    -13.371  0.4419E-03  0.0000E+00  0.1260E+03  0.1260E+03
    -13.130  0.3179E+02  0.0000E+00  0.1337E+03  0.1260E+03
    -12.889  0.4275E+02  0.3842E+00  0.1440E+03  0.1261E+03
    -12.648  0.1480E+00  0.6011E+02  0.1440E+03  0.1406E+03
    -12.407  0.0000E+00  0.1419E+02  0.1440E+03  0.1440E+03
    -12.166  0.0000E+00  0.0000E+00  0.1440E+03  0.1440E+03
    -11.925  0.0000E+00  0.0000E+00  0.1440E+03  0.1440E+03
    -11.684  0.0000E+00  0.0000E+00  0.1440E+03  0.1440E+03
    -11.443  0.0000E+00  0.0000E+00  0.1440E+03  0.1440E+03
    -11.202  0.0000E+00  0.0000E+00  0.1440E+03  0.1440E+03
    -10.961  0.0000E+00  0.0000E+00  0.1440E+03  0.1440E+03
    -10.720  0.0000E+00  0.0000E+00  0.1440E+03  0.1440E+03
    -10.479  0.0000E+00  0.0000E+00  0.1440E+03  0.1440E+03
    -10.238  0.0000E+00  0.0000E+00  0.1440E+03  0.1440E+03
     -9.997  0.0000E+00  0.0000E+00  0.1440E+03  0.1440E+03
     -9.756  0.0000E+00  0.0000E+00  0.1440E+03  0.1440E+03
     -9.515  0.0000E+00  0.0000E+00  0.1440E+03  0.1440E+03
     -9.274  0.0000E+00  0.0000E+00  0.1440E+03  0.1440E+03
     -9.033  0.0000E+00  0.0000E+00  0.1440E+03  0.1440E+03
     -8.792  0.0000E+00  0.0000E+00  0.1440E+03  0.1440E+03
     -8.551  0.0000E+00  0.0000E+00  0.1440E+03  0.1440E+03
     -8.310  0.0000E+00  0.0000E+00  0.1440E+03  0.1440E+03
     -8.069  0.0000E+00  0.0000E+00  0.1440E+03  0.1440E+03
     -7.828  0.1291E-09  0.0000E+00  0.1440E+03  0.1440E+03
     -7.587  0.7201E+00  0.1754E-10  0.1442E+03  0.1440E+03
     -7.346  0.1816E+02  0.6172E+00  0.1485E+03  0.1441E+03
     -7.105  0.3201E+02  0.2009E+02  0.1563E+03  0.1490E+03
     -6.864  0.3510E+02  0.3052E+02  0.1647E+03  0.1563E+03
     -6.623  0.2604E+02  0.2605E+02  0.1710E+03  0.1626E+03
     -6.382  0.3205E-04  0.3469E+02  0.1710E+03  0.1710E+03
     -6.141  0.0000E+00  0.6794E-01  0.1710E+03  0.1710E+03
     -5.900  0.0000E+00  0.0000E+00  0.1710E+03  0.1710E+03
     -5.659  0.0000E+00  0.0000E+00  0.1710E+03  0.1710E+03
     -5.418  0.0000E+00  0.0000E+00  0.1710E+03  0.1710E+03
     -5.177  0.0000E+00  0.0000E+00  0.1710E+03  0.1710E+03
     -4.936  0.0000E+00  0.0000E+00  0.1710E+03  0.1710E+03
     -4.695  0.0000E+00  0.0000E+00  0.1710E+03  0.1710E+03
     -4.454  0.0000E+00  0.0000E+00  0.1710E+03  0.1710E+03
     -4.213  0.0000E+00  0.0000E+00  0.1710E+03  0.1710E+03
     -3.972  0.0000E+00  0.0000E+00  0.1710E+03  0.1710E+03
     -3.731  0.0000E+00  0.0000E+00  0.1710E+03  0.1710E+03
     -3.490  0.0000E+00  0.0000E+00  0.1710E+03  0.1710E+03
     -3.249  0.0000E+00  0.0000E+00  0.1710E+03  0.1710E+03
     -3.008  0.0000E+00  0.0000E+00  0.1710E+03  0.1710E+03
     -2.767  0.0000E+00  0.0000E+00  0.1710E+03  0.1710E+03
     -2.526  0.0000E+00  0.0000E+00  0.1710E+03  0.1710E+03
     -2.285  0.0000E+00  0.0000E+00  0.1710E+03  0.1710E+03
     -2.044  0.1607E-01  0.0000E+00  0.1710E+03  0.1710E+03
     -1.803  0.2497E+02  0.0000E+00  0.1770E+03  0.1710E+03
     -1.562  0.1870E+02  0.0000E+00  0.1815E+03  0.1710E+03
     -1.321  0.1468E+02  0.0000E+00  0.1851E+03  0.1710E+03
     -1.080  0.2369E+02  0.0000E+00  0.1908E+03  0.1710E+03
     -0.839  0.5679E+02  0.0000E+00  0.2045E+03  0.1710E+03
     -0.598  0.6235E+02  0.4509E-03  0.2195E+03  0.1710E+03
     -0.357  0.4022E+02  0.9869E+01  0.2292E+03  0.1734E+03
     -0.116  0.8225E+02  0.2112E+02  0.2490E+03  0.1785E+03
      0.125  0.8929E+02  0.1320E+02  0.2705E+03  0.1817E+03
      0.366  0.8333E+02  0.2378E+02  0.2906E+03  0.1874E+03
      0.607  0.7277E+02  0.3166E+02  0.3081E+03  0.1950E+03
      0.848  0.6037E+02  0.4760E+02  0.3227E+03  0.2065E+03
      1.089  0.3900E+02  0.4070E+02  0.3321E+03  0.2163E+03
      1.330  0.3590E+02  0.3330E+02  0.3407E+03  0.2243E+03
      1.571  0.5028E+02  0.2466E+02  0.3529E+03  0.2303E+03
      1.812  0.5384E+02  0.3281E+02  0.3658E+03  0.2382E+03
      2.053  0.7577E+02  0.4098E+02  0.3841E+03  0.2480E+03
      2.294  0.6316E+02  0.2744E+02  0.3993E+03  0.2547E+03
      2.535  0.3179E+02  0.2953E+02  0.4070E+03  0.2618E+03
      2.776  0.5087E+02  0.3995E+02  0.4192E+03  0.2714E+03
      3.017  0.2375E+02  0.4601E+02  0.4250E+03  0.2825E+03
      3.258  0.1021E+02  0.4791E+02  0.4274E+03  0.2940E+03
      3.499  0.3883E+02  0.4093E+02  0.4368E+03  0.3039E+03
      3.740  0.2569E+02  0.7081E+01  0.4430E+03  0.3056E+03
      3.981  0.3742E+02  0.2319E+02  0.4520E+03  0.3112E+03
      4.222  0.3897E+02  0.7407E+02  0.4614E+03  0.3290E+03
      4.463  0.3840E+02  0.4313E+02  0.4706E+03  0.3394E+03
      4.704  0.3592E+02  0.1061E+02  0.4793E+03  0.3420E+03
      4.945  0.2473E+02  0.0000E+00  0.4853E+03  0.3420E+03
      5.186  0.3075E+01  0.0000E+00  0.4860E+03  0.3420E+03
      5.427  0.0000E+00  0.0000E+00  0.4860E+03  0.3420E+03
      5.668  0.0000E+00  0.0000E+00  0.4860E+03  0.3420E+03
      5.909  0.0000E+00  0.0000E+00  0.4860E+03  0.3420E+03
      6.150  0.0000E+00  0.2172E-08  0.4860E+03  0.3420E+03
      6.391  0.0000E+00  0.1424E+01  0.4860E+03  0.3423E+03
      6.632  0.0000E+00  0.5072E+01  0.4860E+03  0.3436E+03
      6.873  0.0000E+00  0.1056E+02  0.4860E+03  0.3461E+03
      7.114  0.1109E-12  0.2089E+02  0.4860E+03  0.3511E+03
      7.355  0.6088E-01  0.6083E+02  0.4860E+03  0.3658E+03
      7.596  0.9280E-01  0.6137E+02  0.4860E+03  0.3806E+03
      7.837  0.5940E+00  0.6280E+02  0.4862E+03  0.3957E+03
      8.078  0.6406E+00  0.7514E+02  0.4863E+03  0.4138E+03
      8.319  0.2469E+01  0.8025E+02  0.4869E+03  0.4332E+03
      8.560  0.4615E+01  0.6910E+02  0.4880E+03  0.4498E+03
      8.801  0.9758E+01  0.6561E+02  0.4904E+03  0.4656E+03
      9.042  0.1486E+02  0.4565E+02  0.4940E+03  0.4766E+03
      9.283  0.1650E+02  0.3238E+02  0.4980E+03  0.4844E+03
      9.524  0.1955E+02  0.8650E+01  0.5027E+03  0.4865E+03
      9.765  0.1601E+02  0.5757E+01  0.5065E+03  0.4879E+03
     10.006  0.2443E+02  0.1163E+02  0.5124E+03  0.4907E+03
     10.247  0.1655E+02  0.1702E+02  0.5164E+03  0.4948E+03
     10.488  0.2194E+02  0.2340E+02  0.5217E+03  0.5005E+03
     10.729  0.1380E+02  0.2218E+02  0.5250E+03  0.5058E+03
     10.970  0.1528E+02  0.2263E+02  0.5287E+03  0.5113E+03
     11.211  0.2246E+02  0.3119E+02  0.5341E+03  0.5188E+03
     11.452  0.3261E+02  0.2002E+02  0.5420E+03  0.5236E+03
     11.693  0.2843E+02  0.1813E+02  0.5488E+03  0.5280E+03
     11.934  0.3330E+02  0.1158E+02  0.5568E+03  0.5308E+03
     12.175  0.3614E+02  0.2556E+02  0.5656E+03  0.5369E+03
     12.416  0.2197E+02  0.4523E+02  0.5709E+03  0.5478E+03
     12.657  0.1965E+02  0.3506E+02  0.5756E+03  0.5563E+03
     12.898  0.2511E+02  0.3211E+02  0.5816E+03  0.5640E+03
     13.139  0.2612E+02  0.2057E+02  0.5879E+03  0.5690E+03
     13.380  0.2838E+02  0.2426E+02  0.5948E+03  0.5748E+03
     13.621  0.2498E+02  0.3309E+02  0.6008E+03  0.5828E+03
     13.862  0.1804E+02  0.2622E+02  0.6051E+03  0.5891E+03
     14.103  0.3564E+01  0.2600E+02  0.6060E+03  0.5954E+03
     14.344  0.1370E-03  0.2305E+02  0.6060E+03  0.6009E+03
     14.585  0.0000E+00  0.1889E+02  0.6060E+03  0.6055E+03
     14.826  0.0000E+00  0.2104E+01  0.6060E+03  0.6060E+03
     15.067  0.0000E+00  0.2211E-05  0.6060E+03  0.6060E+03
     15.308  0.0000E+00  0.0000E+00  0.6060E+03  0.6060E+03
     15.549  0.0000E+00  0.0000E+00  0.6060E+03  0.6060E+03
     15.790  0.0000E+00  0.0000E+00  0.6060E+03  0.6060E+03
     16.031  0.0000E+00  0.0000E+00  0.6060E+03  0.6060E+03
     16.272  0.0000E+00  0.0000E+00  0.6060E+03  0.6060E+03
     16.513  0.0000E+00  0.0000E+00  0.6060E+03  0.6060E+03
     16.754  0.0000E+00  0.0000E+00  0.6060E+03  0.6060E+03
     16.995  0.0000E+00  0.0000E+00  0.6060E+03  0.6060E+03
     17.236  0.0000E+00  0.0000E+00  0.6060E+03  0.6060E+03
     17.477  0.0000E+00  0.0000E+00  0.6060E+03  0.6060E+03
     17.718  0.0000E+00  0.0000E+00  0.6060E+03  0.6060E+03
     17.959  0.0000E+00  0.0000E+00  0.6060E+03  0.6060E+03
