 vasp.5.4.4.18Apr17-6-g9f103f2a35 (build Oct 25 2017 14:42:18) complex          
  
 executed on             LinuxIFC date 2021.05.28  05:29:17
 running on   24 total cores
 distrk:  each k-point on   12 cores,    2 groups
 distr:  one band on NCORES_PER_BAND=   6 cores,    2 groups


--------------------------------------------------------------------------------------------------------


 INCAR:
 POTCAR:    PAW_PBE Li_sv 10Sep2004               
 POTCAR:    PAW_PBE O 08Apr2002                   
 POTCAR:    PAW_PBE S 06Sep2000                   
 POTCAR:    PAW_PBE Fe_pv 02Aug2007               

 ----------------------------------------------------------------------------- 
|                                                                             |
|           W    W    AA    RRRRR   N    N  II  N    N   GGGG   !!!           |
|           W    W   A  A   R    R  NN   N  II  NN   N  G    G  !!!           |
|           W    W  A    A  R    R  N N  N  II  N N  N  G       !!!           |
|           W WW W  AAAAAA  RRRRR   N  N N  II  N  N N  G  GGG   !            |
|           WW  WW  A    A  R   R   N   NN  II  N   NN  G    G                |
|           W    W  A    A  R    R  N    N  II  N    N   GGGG   !!!           |
|                                                                             |
|      You have enabled k-point parallelism (KPAR>1).                         |
|      This developmental code was originally  written by Paul Kent at ORNL,  |
|      and carefully double checked in Vienna.                                |
|      GW as well as linear response parallelism added by Martijn Marsman     |
|      and Georg Kresse.                                                      |
|      Carefully verify results versus KPAR=1.                                |
|      Report problems to Paul Kent and Vienna.                               |
|                                                                             |
 ----------------------------------------------------------------------------- 

 POTCAR:    PAW_PBE Li_sv 10Sep2004               
  local pseudopotential read in
  atomic valenz-charges read in
  non local Contribution for L=           0  read in
    real space projection operators read in
  non local Contribution for L=           0  read in
    real space projection operators read in
  non local Contribution for L=           1  read in
    real space projection operators read in
    PAW grid and wavefunctions read in
 
   number of l-projection  operators is LMAX  =           3
   number of lm-projection operators is LMMAX =           5
 
 POTCAR:    PAW_PBE O 08Apr2002                   
  local pseudopotential read in
  partial core-charges read in
  partial kinetic energy density read in
  kinetic energy density of atom read in
  atomic valenz-charges read in
  non local Contribution for L=           0  read in
    real space projection operators read in
  non local Contribution for L=           0  read in
    real space projection operators read in
  non local Contribution for L=           1  read in
    real space projection operators read in
  non local Contribution for L=           1  read in
    real space projection operators read in
    PAW grid and wavefunctions read in
 
   number of l-projection  operators is LMAX  =           4
   number of lm-projection operators is LMMAX =           8
 
 POTCAR:    PAW_PBE S 06Sep2000                   
  local pseudopotential read in
  partial core-charges read in
  partial kinetic energy density read in
  atomic valenz-charges read in
  non local Contribution for L=           0  read in
    real space projection operators read in
  non local Contribution for L=           0  read in
    real space projection operators read in
  non local Contribution for L=           1  read in
    real space projection operators read in
  non local Contribution for L=           1  read in
    real space projection operators read in
    PAW grid and wavefunctions read in
 
   number of l-projection  operators is LMAX  =           4
   number of lm-projection operators is LMMAX =           8
 
 POTCAR:    PAW_PBE Fe_pv 02Aug2007               
  local pseudopotential read in
  partial core-charges read in
  partial kinetic energy density read in
  atomic valenz-charges read in
  non local Contribution for L=           1  read in
    real space projection operators read in
  non local Contribution for L=           1  read in
    real space projection operators read in
  non local Contribution for L=           2  read in
    real space projection operators read in
  non local Contribution for L=           2  read in
    real space projection operators read in
  non local Contribution for L=           0  read in
    real space projection operators read in
  non local Contribution for L=           0  read in
    real space projection operators read in
    PAW grid and wavefunctions read in
 
   number of l-projection  operators is LMAX  =           6
   number of lm-projection operators is LMMAX =          18
 

 ----------------------------------------------------------------------------- 
|                                                                             |
|  ADVICE TO THIS USER RUNNING 'VASP/VAMP'   (HEAR YOUR MASTER'S VOICE ...):  |
|                                                                             |
|      You have a (more or less) 'large supercell' and for larger cells       |
|      it might be more efficient to use real space projection opertators     |
|      So try LREAL= Auto  in the INCAR   file.                               |
|      Mind:          For very  accurate calculation you might also keep the  |
|      reciprocal projection scheme          (i.e. LREAL=.FALSE.)             |
|                                                                             |
 ----------------------------------------------------------------------------- 

  PAW_PBE Li_sv 10Sep2004               :
 energy of atom  1       EATOM= -202.7858
 kinetic energy error for atom=    0.0072 (will be added to EATOM!!)
  PAW_PBE O 08Apr2002                   :
 energy of atom  2       EATOM= -432.3788
 kinetic energy error for atom=    0.0129 (will be added to EATOM!!)
  PAW_PBE S 06Sep2000                   :
 energy of atom  3       EATOM= -276.8230
 kinetic energy error for atom=    0.0008 (will be added to EATOM!!)
  PAW_PBE Fe_pv 02Aug2007               :
 energy of atom  4       EATOM=-2457.4239
 kinetic energy error for atom=    0.0041 (will be added to EATOM!!)
 
 
 POSCAR: # Compound: Li18O18S27Fe36. Old comment:
  positions in direct lattice
  No initial velocities read in
 exchange correlation table for  LEXCH =        8
   RHO(1)=    0.500       N(1)  =     2000
   RHO(2)=  100.500       N(2)  =     4000
 


--------------------------------------------------------------------------------------------------------


 ion  position               nearest neighbor table
   1  0.202  0.242  0.832-  31 1.98  28 1.99  56 2.61  55 2.61
   2  0.536  0.242  0.832-  32 1.98  29 1.99  57 2.61  56 2.61
   3  0.869  0.242  0.832-  33 1.98  30 1.99  55 2.61  57 2.61
   4  0.202  0.575  0.832-  34 1.98  31 1.99  59 2.61  58 2.61
   5  0.536  0.575  0.832-  35 1.98  32 1.99  60 2.61  59 2.61
   6  0.869  0.575  0.832-  36 1.98  33 1.99  58 2.61  60 2.61
   7  0.202  0.909  0.832-  28 1.98  34 1.99  62 2.61  61 2.61
   8  0.536  0.909  0.832-  29 1.98  35 1.99  63 2.61  62 2.61
   9  0.869  0.909  0.832-  30 1.98  36 1.99  61 2.61  63 2.61
  10  0.091  0.131  0.168-  21 1.98  19 1.99  61 2.61  55 2.61
  11  0.425  0.131  0.168-  19 1.98  20 1.99  62 2.61  56 2.61
  12  0.758  0.131  0.168-  20 1.98  21 1.99  63 2.61  57 2.61
  13  0.091  0.464  0.168-  24 1.98  22 1.99  55 2.61  58 2.61
  14  0.425  0.464  0.168-  22 1.98  23 1.99  56 2.61  59 2.61
  15  0.758  0.464  0.168-  23 1.98  24 1.99  57 2.61  60 2.61
  16  0.091  0.798  0.168-  27 1.98  25 1.99  58 2.61  61 2.61
  17  0.425  0.798  0.168-  25 1.98  26 1.99  59 2.61  62 2.61
  18  0.758  0.798  0.168-  26 1.98  27 1.99  60 2.61  63 2.61
  19  0.263  0.136  0.197-  11 1.98  10 1.99  97 2.01  64 2.01  91 2.01
  20  0.596  0.136  0.197-  12 1.98  11 1.99  98 2.01  65 2.01  92 2.01
  21  0.930  0.136  0.197-  10 1.98  12 1.99  99 2.01  66 2.01  93 2.01
  22  0.263  0.469  0.197-  14 1.98  13 1.99  91 2.01  67 2.01  94 2.01
  23  0.596  0.469  0.197-  15 1.98  14 1.99  92 2.01  68 2.01  95 2.01
  24  0.930  0.469  0.197-  13 1.98  15 1.99  93 2.01  69 2.01  96 2.01
  25  0.263  0.803  0.197-  17 1.98  16 1.99  94 2.01  70 2.01  97 2.01
  26  0.596  0.803  0.197-  18 1.98  17 1.99  95 2.01  71 2.01  98 2.01
  27  0.930  0.803  0.197-  16 1.98  18 1.99  96 2.01  72 2.01  99 2.01
  28  0.197  0.070  0.803-   7 1.98   1 1.99  83 2.01  73 2.01  82 2.02
  29  0.531  0.070  0.803-   8 1.98   2 1.99  84 2.01  74 2.01  83 2.01
  30  0.864  0.070  0.803-   9 1.98   3 1.99  82 2.00  75 2.01  84 2.01
  31  0.197  0.404  0.803-   1 1.98   4 1.99  86 2.01  76 2.01  85 2.01
  32  0.531  0.404  0.803-   2 1.98   5 1.99  87 2.01  77 2.01  86 2.01
  33  0.864  0.404  0.803-   3 1.98   6 1.99  85 2.01  78 2.01  87 2.01
  34  0.197  0.737  0.803-   4 1.98   7 1.99  89 2.01  79 2.01  88 2.01
  35  0.531  0.737  0.803-   5 1.98   8 1.99  90 2.01  80 2.01  89 2.01
  36  0.864  0.737  0.803-   6 1.98   9 1.99  88 2.01  81 2.01  90 2.01
  37  0.003  0.207  0.629-  66 2.41  73 2.70  75 2.76
  38  0.336  0.207  0.629-  64 2.41  74 2.70  73 2.76
  39  0.669  0.207  0.629-  65 2.41  75 2.70  74 2.76
  40  0.003  0.540  0.629-  69 2.41  76 2.70  78 2.76
  41  0.336  0.540  0.629-  67 2.41  77 2.70  76 2.76
  42  0.669  0.540  0.629-  68 2.41  78 2.70  77 2.76
  43  0.003  0.873  0.629-  72 2.41  79 2.70  81 2.76
  44  0.336  0.873  0.629-  70 2.41  80 2.70  79 2.76
  45  0.669  0.873  0.629-  71 2.41  81 2.70  80 2.76
  46  0.127  0.331  0.371-  76 2.41  64 2.70  67 2.76
  47  0.460  0.331  0.371-  77 2.41  65 2.70  68 2.76
  48  0.793  0.331  0.371-  78 2.41  66 2.70  69 2.76
  49  0.127  0.664  0.371-  79 2.41  67 2.70  70 2.76
  50  0.460  0.664  0.371-  80 2.41  68 2.70  71 2.76
  51  0.793  0.664  0.371-  81 2.41  69 2.70  72 2.76
  52  0.127  0.997  0.371-  73 2.41  70 2.70  64 2.76
  53  0.460  0.997  0.371-  74 2.41  71 2.70  65 2.76
  54  0.793  0.997  0.371-  75 2.41  72 2.70  66 2.76
  55  0.064  0.270  0.000-  85 2.52  93 2.52  91 2.52  82 2.52  13 2.61   3 2.61  10 2.61   1 2.61

  56  0.397  0.270  0.000-  86 2.52  91 2.52  83 2.52  92 2.52  14 2.61   1 2.61  11 2.61   2 2.61

  57  0.730  0.270  0.000-  87 2.52  92 2.52  84 2.52  93 2.52  15 2.61   2 2.61  12 2.61   3 2.61

  58  0.064  0.603  0.000-  88 2.52  96 2.52  85 2.52  94 2.52  16 2.61   6 2.61  13 2.61   4 2.61

  59  0.397  0.603  0.000-  89 2.52  94 2.52  86 2.52  95 2.52  17 2.61   4 2.61  14 2.61   5 2.61

  60  0.730  0.603  0.000-  90 2.52  95 2.52  87 2.52  96 2.52  18 2.61   5 2.61  15 2.61   6 2.61

  61  0.064  0.936  0.000-  99 2.52  82 2.52  88 2.52  97 2.52  10 2.61   9 2.61  16 2.61   7 2.61

  62  0.397  0.936  0.000-  83 2.52  97 2.52  89 2.52  98 2.52  11 2.61   7 2.61  17 2.61   8 2.61

  63  0.730  0.936  0.000-  84 2.52  98 2.52  90 2.52  99 2.52  12 2.61   8 2.61  18 2.61   9 2.61

  64  0.290  0.172  0.394-  19 2.01  38 2.41  46 2.70  52 2.76
  65  0.624  0.172  0.394-  20 2.01  39 2.41  47 2.70  53 2.76
  66  0.957  0.172  0.394-  21 2.01  37 2.41  48 2.70  54 2.76
  67  0.290  0.505  0.394-  22 2.01  41 2.41  49 2.70  46 2.76
  68  0.624  0.505  0.394-  23 2.01  42 2.41  50 2.70  47 2.76
  69  0.957  0.505  0.394-  24 2.01  40 2.41  51 2.70  48 2.76
  70  0.290  0.839  0.394-  25 2.01  44 2.41  52 2.70  49 2.76
  71  0.624  0.839  0.394-  26 2.01  45 2.41  53 2.70  50 2.76
  72  0.957  0.839  0.394-  27 2.01  43 2.41  54 2.70  51 2.76
  73  0.161  0.043  0.606-  28 2.01  52 2.41  37 2.70  38 2.76
  74  0.495  0.043  0.606-  29 2.01  53 2.41  38 2.70  39 2.76
  75  0.828  0.043  0.606-  30 2.01  54 2.41  39 2.70  37 2.76
  76  0.161  0.376  0.606-  31 2.01  46 2.41  40 2.70  41 2.76
  77  0.495  0.376  0.606-  32 2.01  47 2.41  41 2.70  42 2.76
  78  0.828  0.376  0.606-  33 2.01  48 2.41  42 2.70  40 2.76
  79  0.161  0.710  0.606-  34 2.01  49 2.41  43 2.70  44 2.76
  80  0.495  0.710  0.606-  35 2.01  50 2.41  44 2.70  45 2.76
  81  0.828  0.710  0.606-  36 2.01  51 2.41  45 2.70  43 2.76
  82  0.037  0.077  0.845-  30 2.00  28 2.02  61 2.52  55 2.52
  83  0.371  0.077  0.845-  28 2.01  29 2.01  62 2.52  56 2.52
  84  0.704  0.077  0.845-  29 2.01  30 2.01  63 2.52  57 2.52
  85  0.038  0.411  0.845-  33 2.01  31 2.01  55 2.52  58 2.52
  86  0.371  0.411  0.845-  31 2.01  32 2.01  56 2.52  59 2.52
  87  0.704  0.411  0.845-  32 2.01  33 2.01  57 2.52  60 2.52
  88  0.038  0.744  0.845-  36 2.01  34 2.01  58 2.52  61 2.52
  89  0.371  0.744  0.845-  34 2.01  35 2.01  59 2.52  62 2.52
  90  0.704  0.744  0.845-  35 2.01  36 2.01  60 2.52  63 2.52
  91  0.256  0.296  0.155-  22 2.01  19 2.01  56 2.52  55 2.52
  92  0.589  0.296  0.155-  23 2.01  20 2.01  57 2.52  56 2.52
  93  0.923  0.296  0.155-  24 2.01  21 2.01  55 2.52  57 2.52
  94  0.256  0.629  0.155-  25 2.01  22 2.01  59 2.52  58 2.52
  95  0.589  0.629  0.155-  26 2.01  23 2.01  60 2.52  59 2.52
  96  0.923  0.629  0.155-  27 2.01  24 2.01  58 2.52  60 2.52
  97  0.256  0.962  0.155-  19 2.01  25 2.01  62 2.52  61 2.52
  98  0.589  0.962  0.155-  20 2.01  26 2.01  63 2.52  62 2.52
  99  0.923  0.962  0.155-  21 2.01  27 2.01  61 2.52  63 2.52
 

IMPORTANT INFORMATION: All symmetrisations will be switched off!
NOSYMM: (Re-)initialisation of all symmetry stuff for point group C_1.

 
 
 KPOINTS: # No comment                            

Automatic generation of k-mesh.
Space group operators:
 irot       det(A)        alpha          n_x          n_y          n_z        tau_x        tau_y        tau_z
    1     1.000000     0.000001     1.000000     0.000000     0.000000     0.000000     0.000000     0.000000
 
 Subroutine IBZKPT returns following result:
 ===========================================
 
 Found     14 irreducible k-points:
 
 Following reciprocal coordinates:
            Coordinates               Weight
  0.000000  0.000000  0.000000      1.000000
  0.333333 -0.000000 -0.000000      2.000000
  0.000000  0.333333  0.000000      2.000000
  0.333333  0.333333  0.000000      2.000000
 -0.333333  0.333333  0.000000      2.000000
 -0.000000 -0.000000  0.333333      2.000000
  0.333333 -0.000000  0.333333      2.000000
 -0.333333 -0.000000  0.333333      2.000000
 -0.000000  0.333333  0.333333      2.000000
  0.333333  0.333333  0.333333      2.000000
 -0.333333  0.333333  0.333333      2.000000
 -0.000000 -0.333333  0.333333      2.000000
  0.333333 -0.333333  0.333333      2.000000
 -0.333333 -0.333333  0.333333      2.000000
 
 Following cartesian coordinates:
            Coordinates               Weight
  0.000000  0.000000  0.000000      1.000000
  0.028270  0.000040  0.005614      2.000000
 -0.000053  0.028270  0.005614      2.000000
  0.028217  0.028310  0.011229      2.000000
 -0.028323  0.028230 -0.000000      2.000000
 -0.000192 -0.000192  0.032649      2.000000
  0.028078 -0.000153  0.038263      2.000000
 -0.028462 -0.000232  0.027035      2.000000
 -0.000245  0.028078  0.038263      2.000000
  0.028025  0.028117  0.043878      2.000000
 -0.028515  0.028038  0.032649      2.000000
 -0.000138 -0.028462  0.027035      2.000000
  0.028132 -0.028423  0.032649      2.000000
 -0.028408 -0.028502  0.021421      2.000000
 


--------------------------------------------------------------------------------------------------------




 Dimension of arrays:
   k-points           NKPTS =     14   k-points in BZ     NKDIM =     14   number of bands    NBANDS=    606
   number of dos      NEDOS =    301   number of ions     NIONS =     99
   non local maximal  LDIM  =      6   non local SUM 2l+1 LMDIM =     18
   total plane-waves  NPLWV = 864360
   max r-space proj   IRMAX =      1   max aug-charges    IRDMAX= 154021
   dimension x,y,z NGX =    98 NGY =   98 NGZ =   90
   dimension x,y,z NGXF=   196 NGYF=  196 NGZF=  180
   support grid    NGXF=   392 NGYF=  392 NGZF=  360
   ions per type =              18  18  27  36
   NGX,Y,Z   is equivalent  to a cutoff of  13.83, 13.83, 14.14 a.u.
   NGXF,Y,Z  is equivalent  to a cutoff of  27.67, 27.67, 28.28 a.u.

 SYSTEM =  unknown system                          
 POSCAR =  # Compound: Li18O18S27Fe36. Old comment:

 Startparameter for this run:
   NWRITE =      1    write-flag & timer
   PREC   = accura    normal or accurate (medium, high low for compatibility)
   ISTART =      0    job   : 0-new  1-cont  2-samecut
   ICHARG =      1    charge: 1-file 2-atom 10-const
   ISPIN  =      2    spin polarized calculation?
   LNONCOLLINEAR =      F non collinear calculations
   LSORBIT =      F    spin-orbit coupling
   INIWAV =      1    electr: 0-lowe 1-rand  2-diag
   LASPH  =      T    aspherical Exc in radial PAW
   METAGGA=      F    non-selfconsistent MetaGGA calc.

 Electronic Relaxation 1
   ENCUT  =  650.0 eV  47.77 Ry    6.91 a.u.  24.48 24.48 21.99*2*pi/ulx,y,z
   ENINI  =  650.0     initial cutoff
   ENAUG  =  628.9 eV  augmentation charge cutoff
   NELM   =    200;   NELMIN=  8; NELMDL=  0     # of ELM steps 
   EDIFF  = 0.1E-05   stopping-criterion for ELM
   LREAL  =      F    real-space projection
   NLSPLINE    = F    spline interpolate recip. space projectors
   LCOMPAT=      F    compatible to vasp.4.4
   GGA_COMPAT  = T    GGA compatible to vasp.4.4-vasp.4.6
   LMAXPAW     = -100 max onsite density
   LMAXMIX     =    4 max onsite mixed and CHGCAR
   VOSKOWN=      0    Vosko Wilk Nusair interpolation
   ROPT   =    0.00000   0.00000   0.00000   0.00000
 Ionic relaxation
   EDIFFG = 0.1E-04   stopping-criterion for IOM
   NSW    =      0    number of steps for IOM
   NBLOCK =      1;   KBLOCK =      1    inner block; outer block 
   IBRION =     -1    ionic relax: 0-MD 1-quasi-New 2-CG
   NFREE  =      0    steps in history (QN), initial steepest desc. (CG)
   ISIF   =      2    stress and relaxation
   IWAVPR =     10    prediction:  0-non 1-charg 2-wave 3-comb
   ISYM   =      0    0-nonsym 1-usesym 2-fastsym
   LCORR  =      T    Harris-Foulkes like correction to forces

   POTIM  = 0.5000    time-step for ionic-motion
   TEIN   =    0.0    initial temperature
   TEBEG  =    0.0;   TEEND  =   0.0 temperature during run
   SMASS  =  -3.00    Nose mass-parameter (am)
   estimated Nose-frequenzy (Omega)   =  0.10E-29 period in steps =****** mass=  -0.317E-26a.u.
   SCALEE = 1.0000    scale energy and forces
   NPACO  =    256;   APACO  = 16.0  distance and # of slots for P.C.
   PSTRESS=    0.0 pullay stress

  Mass of Ions in am
   POMASS =   7.01 16.00 32.07 55.85
  Ionic Valenz
   ZVAL   =   3.00  6.00  6.00 14.00
  Atomic Wigner-Seitz radii
   RWIGS  =  -1.00 -1.00 -1.00 -1.00
  virtual crystal weights 
   VCA    =   1.00  1.00  1.00  1.00
   NELECT =     828.0000    total number of electrons
   NUPDOWN=      -1.0000    fix difference up-down

 DOS related values:
   EMIN   =  10.00;   EMAX   =-10.00  energy-range for DOS
   EFERMI =   0.00
   ISMEAR =     0;   SIGMA  =   0.05  broadening in eV -4-tet -1-fermi 0-gaus

 Electronic relaxation 2 (details)
   IALGO  =     38    algorithm
   LDIAG  =      T    sub-space diagonalisation (order eigenvalues)
   LSUBROT=      F    optimize rotation matrix (better conditioning)
   TURBO    =      0    0=normal 1=particle mesh
   IRESTART =      0    0=no restart 2=restart with 2 vectors
   NREBOOT  =      0    no. of reboots
   NMIN     =      0    reboot dimension
   EREF     =   0.00    reference energy to select bands
   IMIX   =      4    mixing-type and parameters
     AMIX     =   0.40;   BMIX     =  1.00
     AMIX_MAG =   1.60;   BMIX_MAG =  1.00
     AMIN     =   0.10
     WC   =   100.;   INIMIX=   1;  MIXPRE=   1;  MAXMIX= -45

 Intra band minimization:
   WEIMIN = 0.0000     energy-eigenvalue tresh-hold
   EBREAK =  0.41E-09  absolut break condition
   DEPER  =   0.30     relativ break condition  

   TIME   =   0.40     timestep for ELM

  volume/ion in A,a.u.               =      14.30        96.53
  Fermi-wavevector in a.u.,A,eV,Ry     =   1.368946  2.586933 25.497507  1.874014
  Thomas-Fermi vector in A             =   2.494865
 
 Write flags
   LWAVE        =      F    write WAVECAR
   LDOWNSAMPLE  =      F    k-point downsampling of WAVECAR
   LCHARG       =      T    write CHGCAR
   LVTOT        =      F    write LOCPOT, total local potential
   LVHAR        =      F    write LOCPOT, Hartree potential only
   LELF         =      F    write electronic localiz. function (ELF)
   LORBIT       =      0    0 simple, 1 ext, 2 COOP (PROOUT), +10 PAW based schemes


 Dipole corrections
   LMONO  =      F    monopole corrections only (constant potential shift)
   LDIPOL =      F    correct potential (dipole corrections)
   IDIPOL =      0    1-x, 2-y, 3-z, 4-all directions 
   EPSILON=  1.0000000 bulk dielectric constant

 LDA+U is selected, type is set to LDAUTYPE =  2
   angular momentum for each species LDAUL =    -1   -1   -1    2
   U (eV)           for each species LDAUU =   0.0  0.0  0.0  4.0
   J (eV)           for each species LDAUJ =   0.0  0.0  0.0  0.0
 Exchange correlation treatment:
   GGA     =    PE    GGA type
   LEXCH   =     8    internal setting for exchange type
   VOSKOWN=      0    Vosko Wilk Nusair interpolation
   LHFCALC =     F    Hartree Fock is set to
   LHFONE  =     F    Hartree Fock one center treatment
   AEXX    =    0.0000 exact exchange contribution

 Linear response parameters
   LEPSILON=     F    determine dielectric tensor
   LRPA    =     F    only Hartree local field effects (RPA)
   LNABLA  =     F    use nabla operator in PAW spheres
   LVEL    =     F    velocity operator in full k-point grid
   LINTERFAST=   F  fast interpolation
   KINTER  =     0    interpolate to denser k-point grid
   CSHIFT  =0.1000    complex shift for real part using Kramers Kronig
   OMEGAMAX=  -1.0    maximum frequency
   DEG_THRESHOLD= 0.2000000E-02 threshold for treating states as degnerate
   RTIME   =   -0.100 relaxation time in fs
  (WPLASMAI=    0.000 imaginary part of plasma frequency in eV, 0.658/RTIME)
   DFIELD  = 0.0000000 0.0000000 0.0000000 field for delta impulse in time
 
 Orbital magnetization related:
   ORBITALMAG=     F  switch on orbital magnetization
   LCHIMAG   =     F  perturbation theory with respect to B field
   DQ        =  0.001000  dq finite difference perturbation B field
   LLRAUG    =     F  two centre corrections for induced B field



--------------------------------------------------------------------------------------------------------


 Static calculation
 charge density and potential will be updated during run
 spin polarized calculation
 Variant of blocked Davidson
 Davidson routine will perform the subspace rotation
 perform sub-space diagonalisation
    after iterative eigenvector-optimisation
 modified Broyden-mixing scheme, WC =      100.0
 initial mixing is a Kerker type mixing with AMIX =  0.4000 and BMIX =      1.0000
 Hartree-type preconditioning will be used
 using additional bands          192
 reciprocal scheme for non local part
 use partial core corrections
 calculate Harris-corrections to forces 
   (improved forces if not selfconsistent)
 use gradient corrections 
 use of overlap-Matrix (Vanderbilt PP)
 Gauss-broadening in eV      SIGMA  =   0.05


--------------------------------------------------------------------------------------------------------


  energy-cutoff  :      650.00
  volume of cell :     1416.11
      direct lattice vectors                 reciprocal lattice vectors
    11.777269740  0.008488710  0.069233160     0.084810225  0.000119058  0.016842962
    -0.030282480 11.777233860  0.069233160    -0.000160141  0.084810158  0.016842962
    -2.020002310 -2.026663200 10.185746220    -0.000575372 -0.000577269  0.097947445

  length of vectors
    11.777476292 11.777476285 10.580037765     0.086466605  0.086466605  0.097950836


 
 k-points in units of 2pi/SCALE and weight: # No comment                            
   0.00000000  0.00000000  0.00000000       0.037
   0.02827008  0.00003969  0.00561432       0.074
  -0.00005338  0.02827005  0.00561432       0.074
   0.02821669  0.02830974  0.01122864       0.074
  -0.02832346  0.02823037 -0.00000000       0.074
  -0.00019179 -0.00019242  0.03264915       0.074
   0.02807828 -0.00015274  0.03826347       0.074
  -0.02846187 -0.00023211  0.02703483       0.074
  -0.00024517  0.02807763  0.03826347       0.074
   0.02802490  0.02811732  0.04387779       0.074
  -0.02851525  0.02803794  0.03264915       0.074
  -0.00013841 -0.02846248  0.02703483       0.074
   0.02813166 -0.02842279  0.03264915       0.074
  -0.02840849 -0.02850216  0.02142051       0.074
 
 k-points in reciprocal lattice and weights: # No comment                            
   0.00000000  0.00000000  0.00000000       0.037
   0.33333333 -0.00000000 -0.00000000       0.074
   0.00000000  0.33333333  0.00000000       0.074
   0.33333333  0.33333333  0.00000000       0.074
  -0.33333333  0.33333333  0.00000000       0.074
  -0.00000000 -0.00000000  0.33333333       0.074
   0.33333333 -0.00000000  0.33333333       0.074
  -0.33333333 -0.00000000  0.33333333       0.074
  -0.00000000  0.33333333  0.33333333       0.074
   0.33333333  0.33333333  0.33333333       0.074
  -0.33333333  0.33333333  0.33333333       0.074
  -0.00000000 -0.33333333  0.33333333       0.074
   0.33333333 -0.33333333  0.33333333       0.074
  -0.33333333 -0.33333333  0.33333333       0.074
 
 position of ions in fractional coordinates (direct lattice) 
   0.20224939  0.24206952  0.83183419
   0.53558272  0.24206952  0.83183419
   0.86891606  0.24206952  0.83183419
   0.20224939  0.57540285  0.83183419
   0.53558272  0.57540285  0.83183419
   0.86891606  0.57540285  0.83183419
   0.20224939  0.90873619  0.83183419
   0.53558272  0.90873619  0.83183419
   0.86891606  0.90873619  0.83183419
   0.09126381  0.13108394  0.16816581
   0.42459715  0.13108394  0.16816581
   0.75793048  0.13108394  0.16816581
   0.09126381  0.46441728  0.16816581
   0.42459715  0.46441728  0.16816581
   0.75793048  0.46441728  0.16816581
   0.09126381  0.79775061  0.16816581
   0.42459715  0.79775061  0.16816581
   0.75793048  0.79775061  0.16816581
   0.26311007  0.13598816  0.19686089
   0.59644341  0.13598816  0.19686089
   0.92977674  0.13598816  0.19686089
   0.26311007  0.46932149  0.19686089
   0.59644341  0.46932149  0.19686089
   0.92977674  0.46932149  0.19686089
   0.26311007  0.80265483  0.19686089
   0.59644341  0.80265483  0.19686089
   0.92977674  0.80265483  0.19686089
   0.19734517  0.07022326  0.80313911
   0.53067851  0.07022326  0.80313911
   0.86401184  0.07022326  0.80313911
   0.19734517  0.40355659  0.80313911
   0.53067851  0.40355659  0.80313911
   0.86401184  0.40355659  0.80313911
   0.19734517  0.73688993  0.80313911
   0.53067851  0.73688993  0.80313911
   0.86401184  0.73688993  0.80313911
   0.00253935  0.20657296  0.62920335
   0.33587268  0.20657296  0.62920335
   0.66920601  0.20657296  0.62920335
   0.00253935  0.53990630  0.62920335
   0.33587268  0.53990630  0.62920335
   0.66920601  0.53990630  0.62920335
   0.00253935  0.87323963  0.62920335
   0.33587268  0.87323963  0.62920335
   0.66920601  0.87323963  0.62920335
   0.12676037  0.33079399  0.37079665
   0.46009370  0.33079399  0.37079665
   0.79342704  0.33079399  0.37079665
   0.12676037  0.66412732  0.37079665
   0.46009370  0.66412732  0.37079665
   0.79342704  0.66412732  0.37079665
   0.12676037  0.99746065  0.37079665
   0.46009370  0.99746065  0.37079665
   0.79342704  0.99746065  0.37079665
   0.06350899  0.26982435  0.00000000
   0.39684232  0.26982435  0.00000000
   0.73017565  0.26982435  0.00000000
   0.06350899  0.60315768  0.00000000
   0.39684232  0.60315768  0.00000000
   0.73017565  0.60315768  0.00000000
   0.06350899  0.93649101  0.00000000
   0.39684232  0.93649101  0.00000000
   0.73017565  0.93649101  0.00000000
   0.29027274  0.17214940  0.39352170
   0.62360607  0.17214940  0.39352170
   0.95693941  0.17214940  0.39352170
   0.29027274  0.50548273  0.39352170
   0.62360607  0.50548273  0.39352170
   0.95693941  0.50548273  0.39352170
   0.29027274  0.83881607  0.39352170
   0.62360607  0.83881607  0.39352170
   0.95693941  0.83881607  0.39352170
   0.16118393  0.04306059  0.60647830
   0.49451727  0.04306059  0.60647830
   0.82785060  0.04306059  0.60647830
   0.16118393  0.37639393  0.60647830
   0.49451727  0.37639393  0.60647830
   0.82785060  0.37639393  0.60647830
   0.16118393  0.70972726  0.60647830
   0.49451727  0.70972726  0.60647830
   0.82785060  0.70972726  0.60647830
   0.03676483  0.07731307  0.84542777
   0.37094724  0.07731307  0.84542777
   0.70428057  0.07731307  0.84542777
   0.03761391  0.41064640  0.84542777
   0.37094724  0.41064640  0.84542777
   0.70428057  0.41064640  0.84542777
   0.03761391  0.74397973  0.84542777
   0.37094724  0.74397973  0.84542777
   0.70428057  0.74397973  0.84542777
   0.25602027  0.29571943  0.15457223
   0.58935360  0.29571943  0.15457223
   0.92268693  0.29571943  0.15457223
   0.25602027  0.62905276  0.15457223
   0.58935360  0.62905276  0.15457223
   0.92268693  0.62905276  0.15457223
   0.25602027  0.96238609  0.15457223
   0.58935360  0.96238609  0.15457223
   0.92268693  0.96238609  0.15457223
 
 position of ions in cartesian coordinates  (Angst):
   0.69430817  1.16677844  8.50361356
   4.62006475  1.16960801  8.52669128
   8.54582133  1.17243758  8.54976900
   0.68421401  5.09252306  8.52669128
   4.60997059  5.09535263  8.54976900
   8.53572717  5.09818220  8.57284672
   0.67411985  9.01826768  8.54976900
   4.59987643  9.02109725  8.57284672
   8.52563301  9.02392682  8.59592444
   0.73117368  1.20376551  1.72828810
   4.65693026  1.20659508  1.75136582
   8.58268684  1.20942465  1.77444354
   0.72107952  5.12951013  1.75136582
   4.64683610  5.13233970  1.77444354
   8.57259268  5.13516927  1.79752126
   0.71098536  9.05525475  1.77444354
   4.63674194  9.05808432  1.79752126
   8.56249852  9.06091389  1.82059898
   2.69694079  1.20482711  2.03280590
   6.62269737  1.20765668  2.05588362
  10.54845395  1.21048625  2.07896134
   2.68684663  5.13057173  2.05588362
   6.61260321  5.13340130  2.07896134
  10.53835979  5.13623087  2.10203906
   2.67675247  9.05631635  2.07896134
   6.60250905  9.05914592  2.10203906
  10.52826563  9.06197549  2.12511678
   0.69971795 -0.79898152  8.19909576
   4.62547453 -0.79615195  8.22217348
   8.55123111 -0.79332238  8.24525120
   0.68962379  3.12676310  8.22217348
   4.61538037  3.12959267  8.24525120
   8.54113695  3.13242224  8.26832892
   0.67952963  7.05250772  8.24525120
   4.60528621  7.05533729  8.26832892
   8.53104279  7.05816686  8.29140664
  -1.24734119  1.15769638  6.42338315
   2.67841539  1.16052595  6.44646087
   6.60417197  1.16335552  6.46953859
  -1.25743535  5.08344100  6.44646087
   2.66832123  5.08627057  6.46953859
   6.59407781  5.08910014  6.49261631
  -1.26752951  9.00918562  6.46953859
   2.65822707  9.01201519  6.49261631
   6.58398365  9.01484476  6.51569403
   0.73386372  3.14543425  3.80851851
   4.65962030  3.14826382  3.83159623
   8.58537688  3.15109339  3.85467395
   0.72376956  7.07117887  3.83159623
   4.64952614  7.07400844  3.85467395
   8.57528272  7.07683801  3.87775167
   0.71367540 10.99692349  3.85467395
   4.63943198 10.99975306  3.87775167
   8.56518856 11.00258263  3.90082939
   0.73979152  3.17832354  0.02307772
   4.66554810  3.18115311  0.04615544
   8.59130468  3.18398268  0.06923316
   0.72969736  7.10406816  0.04615544
   4.65545394  7.10689773  0.06923316
   8.58121052  7.10972730  0.09231088
   0.71960320 11.02981278  0.06923316
   4.64535978 11.03264235  0.09231088
   8.57111636 11.03547192  0.11538860
   2.61849250  1.23237184  4.04032711
   6.54424908  1.23520141  4.06340483
  10.47000566  1.23803098  4.08648255
   2.60839834  5.15811646  4.06340483
   6.53415492  5.16094603  4.08648255
  10.45991150  5.16377560  4.10956027
   2.59830418  9.08386108  4.08648255
   6.52406076  9.08669065  4.10956027
  10.44981734  9.08952022  4.13263799
   0.67191511 -0.72062433  6.19157455
   4.59767169 -0.71779476  6.21465227
   8.52342827 -0.71496519  6.23772999
   0.66182095  3.20512029  6.21465227
   4.58757753  3.20794986  6.23772999
   8.51333411  3.21077943  6.26080771
   0.65172679  7.13086491  6.23772999
   4.57748337  7.13369448  6.26080771
   8.50323995  7.13652405  6.28388543
  -1.27711798 -0.80255120  8.61921069
   2.65863843 -0.79971442  8.64234719
   6.58439500 -0.79688485  8.66542491
  -1.27721231  3.12320063  8.64234719
   2.64854427  3.12603020  8.66542491
   6.57430084  3.12885977  8.68850263
  -1.28730647  7.04894525  8.66542491
   2.63845011  7.05177482  8.68850263
   6.56420668  7.05460439  8.71158035
   2.69402836  3.17166428  1.61263219
   6.61978494  3.17449385  1.63570991
  10.54554152  3.17732342  1.65878763
   2.68393420  7.09740890  1.63570991
   6.60969078  7.10023847  1.65878763
  10.53544736  7.10306804  1.68186535
   2.67384004 11.02315352  1.65878763
   6.59959662 11.02598309  1.68186535
  10.52535320 11.02881266  1.70494307
 


--------------------------------------------------------------------------------------------------------


 k-point  1 :   0.0000 0.0000 0.0000  plane waves:   53279
 k-point  2 :   0.3333-0.0000-0.0000  plane waves:   53283
 k-point  3 :   0.0000 0.3333 0.0000  plane waves:   53283
 k-point  4 :   0.3333 0.3333 0.0000  plane waves:   53248
 k-point  5 :  -0.3333 0.3333 0.0000  plane waves:   53268
 k-point  6 :  -0.0000-0.0000 0.3333  plane waves:   53317
 k-point  7 :   0.3333-0.0000 0.3333  plane waves:   53290
 k-point  8 :  -0.3333-0.0000 0.3333  plane waves:   53280
 k-point  9 :  -0.0000 0.3333 0.3333  plane waves:   53290
 k-point 10 :   0.3333 0.3333 0.3333  plane waves:   53292
 k-point 11 :  -0.3333 0.3333 0.3333  plane waves:   53261
 k-point 12 :  -0.0000-0.3333 0.3333  plane waves:   53280
 k-point 13 :   0.3333-0.3333 0.3333  plane waves:   53261
 k-point 14 :  -0.3333-0.3333 0.3333  plane waves:   53313

 maximum and minimum number of plane-waves per node :      8936     8841

 maximum number of plane-waves:     53317
 maximum index in each direction: 
   IXMAX=   24   IYMAX=   24   IZMAX=   21
   IXMIN=  -24   IYMIN=  -24   IZMIN=  -22


 parallel 3D FFT for wavefunctions:
    minimum data exchange during FFTs selected (reduces bandwidth)
 parallel 3D FFT for charge:
    minimum data exchange during FFTs selected (reduces bandwidth)


 total amount of memory used by VASP MPI-rank0  1508757. kBytes
=======================================================================

   base      :      30000. kBytes
   nonl-proj :      85790. kBytes
   fftplans  :      89726. kBytes
   grid      :      70158. kBytes
   one-center:        528. kBytes
   wavefun   :    1232555. kBytes
 
     INWAV:  cpu time    0.0000: real time    0.0000
 Broyden mixing: mesh for mixing (old mesh)
   NGX = 49   NGY = 49   NGZ = 43
  (NGX  =196   NGY  =196   NGZ  =180)
  gives a total of 103243 points

 initial charge density was supplied:
 number of electron     828.0000017 magnetization     144.0000076
 keeping initial charge density in first step


--------------------------------------------------------------------------------------------------------


 Maximum index for augmentation-charges        13331 (set IRDMAX)


--------------------------------------------------------------------------------------------------------


 First call to EWALD:  gamma=   0.158
 Maximum number of real-space cells 3x 3x 3
 Maximum number of reciprocal cells 3x 3x 3

    FEWALD:  cpu time    0.0052: real time    0.0055


--------------------------------------- Iteration      1(   1)  ---------------------------------------


    POTLOK:  cpu time    1.1321: real time    1.1660
    SETDIJ:  cpu time    2.5525: real time    2.6005
     EDDAV:  cpu time  438.8359: real time  443.5481
       DOS:  cpu time    0.0087: real time    0.0093
    --------------------------------------------
      LOOP:  cpu time  442.5292: real time  447.3240

 eigenvalue-minimisations  : 34880
 total energy-change (2. order) : 0.1170598E+05  (-0.4628331E+05)
 number of electron     828.0000017 magnetization     144.0000076
 augmentation part      828.0000017 magnetization     144.0000076

 Free energy of the ion-electron system (eV)
  ---------------------------------------------------
  alpha Z        PSCENC =      2606.24521607
  Ewald energy   TEWEN  =    -65007.69462694
  -Hartree energ DENC   =    -34081.91849585
  -exchange      EXHF   =         0.00000000
  -V(xc)+E(xc)   XCENC  =      3632.83800786
  PAW double counting   =    104149.30743192  -107360.85880398
  entropy T*S    EENTRO =        -0.01727565
  eigenvalues    EBANDS =       394.16132678
  atomic energy  EATOM  =    107373.91467324
  Solvation  Ediel_sol  =         0.00000000
  ---------------------------------------------------
  free energy    TOTEN  =     11705.97745345 eV

  energy without entropy =    11705.99472911  energy(sigma->0) =    11705.98609128


--------------------------------------------------------------------------------------------------------




--------------------------------------- Iteration      1(   2)  ---------------------------------------


     EDDAV:  cpu time  430.8255: real time  435.8575
       DOS:  cpu time    0.0092: real time    0.0093
    --------------------------------------------
      LOOP:  cpu time  430.8347: real time  435.8668

 eigenvalue-minimisations  : 33936
 total energy-change (2. order) :-0.1037731E+05  (-0.9729335E+04)
 number of electron     828.0000017 magnetization     144.0000076
 augmentation part      828.0000017 magnetization     144.0000076

 Free energy of the ion-electron system (eV)
  ---------------------------------------------------
  alpha Z        PSCENC =      2606.24521607
  Ewald energy   TEWEN  =    -65007.69462694
  -Hartree energ DENC   =    -34081.91849585
  -exchange      EXHF   =         0.00000000
  -V(xc)+E(xc)   XCENC  =      3632.83800786
  PAW double counting   =    104149.30743192  -107360.85880398
  entropy T*S    EENTRO =        -0.06725009
  eigenvalues    EBANDS =     -9983.09500184
  atomic energy  EATOM  =    107373.91467324
  Solvation  Ediel_sol  =         0.00000000
  ---------------------------------------------------
  free energy    TOTEN  =      1328.67115040 eV

  energy without entropy =     1328.73840049  energy(sigma->0) =     1328.70477544


--------------------------------------------------------------------------------------------------------




--------------------------------------- Iteration      1(   3)  ---------------------------------------


     EDDAV:  cpu time  455.4427: real time  460.1478
       DOS:  cpu time    0.0029: real time    0.0029
    --------------------------------------------
      LOOP:  cpu time  455.4457: real time  460.1507

 eigenvalue-minimisations  : 36392
 total energy-change (2. order) :-0.1674249E+04  (-0.1441924E+04)
 number of electron     828.0000017 magnetization     144.0000076
 augmentation part      828.0000017 magnetization     144.0000076

 Free energy of the ion-electron system (eV)
  ---------------------------------------------------
  alpha Z        PSCENC =      2606.24521607
  Ewald energy   TEWEN  =    -65007.69462694
  -Hartree energ DENC   =    -34081.91849585
  -exchange      EXHF   =         0.00000000
  -V(xc)+E(xc)   XCENC  =      3632.83800786
  PAW double counting   =    104149.30743192  -107360.85880398
  entropy T*S    EENTRO =        -0.00000000
  eigenvalues    EBANDS =    -11657.41166696
  atomic energy  EATOM  =    107373.91467324
  Solvation  Ediel_sol  =         0.00000000
  ---------------------------------------------------
  free energy    TOTEN  =      -345.57826463 eV

  energy without entropy =     -345.57826463  energy(sigma->0) =     -345.57826463


--------------------------------------------------------------------------------------------------------




--------------------------------------- Iteration      1(   4)  ---------------------------------------


     EDDAV:  cpu time  487.5537: real time  492.0443
       DOS:  cpu time    0.0032: real time    0.0031
    --------------------------------------------
      LOOP:  cpu time  487.5569: real time  492.0475

 eigenvalue-minimisations  : 39800
 total energy-change (2. order) :-0.1903062E+03  (-0.1871671E+03)
 number of electron     828.0000017 magnetization     144.0000076
 augmentation part      828.0000017 magnetization     144.0000076

 Free energy of the ion-electron system (eV)
  ---------------------------------------------------
  alpha Z        PSCENC =      2606.24521607
  Ewald energy   TEWEN  =    -65007.69462694
  -Hartree energ DENC   =    -34081.91849585
  -exchange      EXHF   =         0.00000000
  -V(xc)+E(xc)   XCENC  =      3632.83800786
  PAW double counting   =    104149.30743192  -107360.85880398
  entropy T*S    EENTRO =        -0.00000000
  eigenvalues    EBANDS =    -11847.71789538
  atomic energy  EATOM  =    107373.91467324
  Solvation  Ediel_sol  =         0.00000000
  ---------------------------------------------------
  free energy    TOTEN  =      -535.88449305 eV

  energy without entropy =     -535.88449305  energy(sigma->0) =     -535.88449305


--------------------------------------------------------------------------------------------------------




--------------------------------------- Iteration      1(   5)  ---------------------------------------


     EDDAV:  cpu time  636.7747: real time  643.7274
       DOS:  cpu time    0.0033: real time    0.0033
    CHARGE:  cpu time   12.0543: real time   12.3001
    MIXING:  cpu time    0.0289: real time    0.0309
    --------------------------------------------
      LOOP:  cpu time  648.8612: real time  656.0617

 eigenvalue-minimisations  : 55304
 total energy-change (2. order) :-0.1390468E+02  (-0.1376425E+02)
 number of electron     828.0000017 magnetization     144.0000050
 augmentation part      313.2919063 magnetization      94.6593795

 Broyden mixing:
  rms(total) = 0.21349E+00    rms(broyden)= 0.21336E+00
  rms(prec ) = 0.21691E+00
  weight for this iteration     100.00

 Free energy of the ion-electron system (eV)
  ---------------------------------------------------
  alpha Z        PSCENC =      2606.24521607
  Ewald energy   TEWEN  =    -65007.69462694
  -Hartree energ DENC   =    -34081.91849585
  -exchange      EXHF   =         0.00000000
  -V(xc)+E(xc)   XCENC  =      3632.83800786
  PAW double counting   =    104149.30743192  -107360.85880398
  entropy T*S    EENTRO =        -0.00000000
  eigenvalues    EBANDS =    -11861.62257541
  atomic energy  EATOM  =    107373.91467324
  Solvation  Ediel_sol  =         0.00000000
  ---------------------------------------------------
  free energy    TOTEN  =      -549.78917308 eV

  energy without entropy =     -549.78917308  energy(sigma->0) =     -549.78917308


--------------------------------------------------------------------------------------------------------




--------------------------------------- Iteration      1(   6)  ---------------------------------------


    POTLOK:  cpu time    1.1244: real time    1.1461
    SETDIJ:  cpu time    2.5256: real time    2.5674
     EDDAV:  cpu time  573.8283: real time  579.9937
       DOS:  cpu time    0.0032: real time    0.0032
    CHARGE:  cpu time   12.1550: real time   12.4250
    MIXING:  cpu time    0.0286: real time    0.0293
    --------------------------------------------
      LOOP:  cpu time  589.6650: real time  596.1646

 eigenvalue-minimisations  : 48472
 total energy-change (2. order) :-0.5329843E+00  (-0.5453751E+00)
 number of electron     828.0000017 magnetization     144.0000039
 augmentation part      312.7261660 magnetization      94.7034107

 Broyden mixing:
  rms(total) = 0.10546E+00    rms(broyden)= 0.10533E+00
  rms(prec ) = 0.10620E+00
  weight for this iteration     100.00

 eigenvalues of (default mixing * dielectric matrix)
  average eigenvalue GAMMA=   0.6465
  0.6465

 Free energy of the ion-electron system (eV)
  ---------------------------------------------------
  alpha Z        PSCENC =      2606.24521607
  Ewald energy   TEWEN  =    -65007.69462694
  -Hartree energ DENC   =    -34080.00435451
  -exchange      EXHF   =         0.00000000
  -V(xc)+E(xc)   XCENC  =      3632.51549775
  PAW double counting   =    103986.56344071  -107196.31722650
  entropy T*S    EENTRO =        -0.00000000
  eigenvalues    EBANDS =    -11865.54477718
  atomic energy  EATOM  =    107373.91467324
  Solvation  Ediel_sol  =         0.00000000
  ---------------------------------------------------
  free energy    TOTEN  =      -550.32215736 eV

  energy without entropy =     -550.32215736  energy(sigma->0) =     -550.32215736


--------------------------------------------------------------------------------------------------------




--------------------------------------- Iteration      1(   7)  ---------------------------------------


    POTLOK:  cpu time    1.1249: real time    1.1274
    SETDIJ:  cpu time    2.5618: real time    2.5663
     EDDAV:  cpu time  600.5795: real time  606.7352
       DOS:  cpu time    0.0032: real time    0.0032
    CHARGE:  cpu time   12.1895: real time   12.4257
    MIXING:  cpu time    0.0289: real time    0.0307
    --------------------------------------------
      LOOP:  cpu time  616.4878: real time  622.8884

 eigenvalue-minimisations  : 51368
 total energy-change (2. order) :-0.1850611E-01  (-0.1905495E-01)
 number of electron     828.0000017 magnetization     144.0000034
 augmentation part      312.6389844 magnetization      94.6959317

 Broyden mixing:
  rms(total) = 0.61199E-01    rms(broyden)= 0.61169E-01
  rms(prec ) = 0.62620E-01
  weight for this iteration     100.00

 eigenvalues of (default mixing * dielectric matrix)
  average eigenvalue GAMMA=   0.5780
  0.5780  0.5780

 Free energy of the ion-electron system (eV)
  ---------------------------------------------------
  alpha Z        PSCENC =      2606.24521607
  Ewald energy   TEWEN  =    -65007.69462694
  -Hartree energ DENC   =    -34080.92809540
  -exchange      EXHF   =         0.00000000
  -V(xc)+E(xc)   XCENC  =      3632.60141178
  PAW double counting   =    104045.09272291  -107255.46346759
  entropy T*S    EENTRO =        -0.00000000
  eigenvalues    EBANDS =    -11864.10849754
  atomic energy  EATOM  =    107373.91467324
  Solvation  Ediel_sol  =         0.00000000
  ---------------------------------------------------
  free energy    TOTEN  =      -550.34066347 eV

  energy without entropy =     -550.34066347  energy(sigma->0) =     -550.34066347


--------------------------------------------------------------------------------------------------------




--------------------------------------- Iteration      1(   8)  ---------------------------------------


    POTLOK:  cpu time    1.1177: real time    1.1372
    SETDIJ:  cpu time    2.5650: real time    2.6202
     EDDAV:  cpu time  576.1139: real time  582.2834
       DOS:  cpu time    0.0037: real time    0.0040
    CHARGE:  cpu time   12.2808: real time   12.4272
    MIXING:  cpu time    0.0370: real time    0.0409
    --------------------------------------------
      LOOP:  cpu time  592.1181: real time  598.5130

 eigenvalue-minimisations  : 49064
 total energy-change (2. order) : 0.4722865E-03  (-0.3936505E-03)
 number of electron     828.0000017 magnetization     144.0000030
 augmentation part      312.6311366 magnetization      94.6988597

 Broyden mixing:
  rms(total) = 0.53383E-01    rms(broyden)= 0.53380E-01
  rms(prec ) = 0.54646E-01
  weight for this iteration     100.00

 eigenvalues of (default mixing * dielectric matrix)
  average eigenvalue GAMMA=   0.5636
  0.6144  0.6144  0.4619

 Free energy of the ion-electron system (eV)
  ---------------------------------------------------
  alpha Z        PSCENC =      2606.24521607
  Ewald energy   TEWEN  =    -65007.69462694
  -Hartree energ DENC   =    -34080.90939412
  -exchange      EXHF   =         0.00000000
  -V(xc)+E(xc)   XCENC  =      3632.63396670
  PAW double counting   =    104059.87015378  -107270.39087075
  entropy T*S    EENTRO =        -0.00000000
  eigenvalues    EBANDS =    -11864.00930916
  atomic energy  EATOM  =    107373.91467324
  Solvation  Ediel_sol  =         0.00000000
  ---------------------------------------------------
  free energy    TOTEN  =      -550.34019118 eV

  energy without entropy =     -550.34019118  energy(sigma->0) =     -550.34019118


--------------------------------------------------------------------------------------------------------




--------------------------------------- Iteration      1(   9)  ---------------------------------------


    POTLOK:  cpu time    1.1131: real time    1.1290
    SETDIJ:  cpu time    2.5862: real time    2.6329
     EDDAV:  cpu time  636.0491: real time  642.9662
       DOS:  cpu time    0.0032: real time    0.0032
    CHARGE:  cpu time   12.0521: real time   12.3308
    MIXING:  cpu time    0.0364: real time    0.0429
    --------------------------------------------
      LOOP:  cpu time  651.8400: real time  659.1049

 eigenvalue-minimisations  : 55144
 total energy-change (2. order) : 0.6034652E-03  (-0.2489740E-04)
 number of electron     828.0000017 magnetization     144.0000011
 augmentation part      312.6342090 magnetization      94.6992032

 Broyden mixing:
  rms(total) = 0.44722E-01    rms(broyden)= 0.44722E-01
  rms(prec ) = 0.45734E-01
  weight for this iteration     100.00

 eigenvalues of (default mixing * dielectric matrix)
  average eigenvalue GAMMA=   1.0834
  1.8526  1.2051  0.6379  0.6379

 Free energy of the ion-electron system (eV)
  ---------------------------------------------------
  alpha Z        PSCENC =      2606.24521607
  Ewald energy   TEWEN  =    -65007.69462694
  -Hartree energ DENC   =    -34081.02709855
  -exchange      EXHF   =         0.00000000
  -V(xc)+E(xc)   XCENC  =      3632.66947615
  PAW double counting   =    104071.95077384  -107282.63674983
  entropy T*S    EENTRO =        -0.00000000
  eigenvalues    EBANDS =    -11863.76125170
  atomic energy  EATOM  =    107373.91467324
  Solvation  Ediel_sol  =         0.00000000
  ---------------------------------------------------
  free energy    TOTEN  =      -550.33958772 eV

  energy without entropy =     -550.33958772  energy(sigma->0) =     -550.33958772


--------------------------------------------------------------------------------------------------------




--------------------------------------- Iteration      1(  10)  ---------------------------------------


    POTLOK:  cpu time    1.1080: real time    1.1344
    SETDIJ:  cpu time    2.5555: real time    2.5951
     EDDAV:  cpu time  630.5631: real time  636.7441
       DOS:  cpu time    0.0032: real time    0.0033
    CHARGE:  cpu time   12.1377: real time   12.4114
    MIXING:  cpu time    0.0399: real time    0.0407
    --------------------------------------------
      LOOP:  cpu time  646.4073: real time  652.9290

 eigenvalue-minimisations  : 54480
 total energy-change (2. order) : 0.1133473E-02  (-0.1831188E-03)
 number of electron     828.0000017 magnetization     144.0000007
 augmentation part      312.6521777 magnetization      94.7012199

 Broyden mixing:
  rms(total) = 0.93693E-02    rms(broyden)= 0.93668E-02
  rms(prec ) = 0.93893E-02
  weight for this iteration     100.00

 eigenvalues of (default mixing * dielectric matrix)
  average eigenvalue GAMMA=   1.0332
  2.4355  0.9546  0.6457  0.6457  0.4847

 Free energy of the ion-electron system (eV)
  ---------------------------------------------------
  alpha Z        PSCENC =      2606.24521607
  Ewald energy   TEWEN  =    -65007.69462694
  -Hartree energ DENC   =    -34081.84059373
  -exchange      EXHF   =         0.00000000
  -V(xc)+E(xc)   XCENC  =      3632.83397256
  PAW double counting   =    104129.76320931  -107341.23158729
  entropy T*S    EENTRO =        -0.00000000
  eigenvalues    EBANDS =    -11862.32871746
  atomic energy  EATOM  =    107373.91467324
  Solvation  Ediel_sol  =         0.00000000
  ---------------------------------------------------
  free energy    TOTEN  =      -550.33845424 eV

  energy without entropy =     -550.33845424  energy(sigma->0) =     -550.33845424


--------------------------------------------------------------------------------------------------------




--------------------------------------- Iteration      1(  11)  ---------------------------------------


    POTLOK:  cpu time    1.0991: real time    1.1600
    SETDIJ:  cpu time    2.5571: real time    2.5601
     EDDAV:  cpu time  509.7664: real time  515.0990
       DOS:  cpu time    0.0030: real time    0.0037
    CHARGE:  cpu time   11.9226: real time   12.1975
    MIXING:  cpu time    0.0454: real time    0.0497
    --------------------------------------------
      LOOP:  cpu time  525.3935: real time  531.0700

 eigenvalue-minimisations  : 42176
 total energy-change (2. order) :-0.7241122E-04  (-0.5645059E-04)
 number of electron     828.0000017 magnetization     144.0000006
 augmentation part      312.6560982 magnetization      94.7010245

 Broyden mixing:
  rms(total) = 0.57975E-02    rms(broyden)= 0.57954E-02
  rms(prec ) = 0.60433E-02
  weight for this iteration     100.00

 eigenvalues of (default mixing * dielectric matrix)
  average eigenvalue GAMMA=   0.9574
  2.4981  0.9117  0.6148  0.6148  0.5524  0.5524

 Free energy of the ion-electron system (eV)
  ---------------------------------------------------
  alpha Z        PSCENC =      2606.24521607
  Ewald energy   TEWEN  =    -65007.69462694
  -Hartree energ DENC   =    -34081.98362128
  -exchange      EXHF   =         0.00000000
  -V(xc)+E(xc)   XCENC  =      3632.86131052
  PAW double counting   =    104143.29964892  -107354.91266716
  entropy T*S    EENTRO =        -0.00000000
  eigenvalues    EBANDS =    -11862.06846002
  atomic energy  EATOM  =    107373.91467324
  Solvation  Ediel_sol  =         0.00000000
  ---------------------------------------------------
  free energy    TOTEN  =      -550.33852665 eV

  energy without entropy =     -550.33852665  energy(sigma->0) =     -550.33852665


--------------------------------------------------------------------------------------------------------




--------------------------------------- Iteration      1(  12)  ---------------------------------------


    POTLOK:  cpu time    1.1250: real time    1.1441
    SETDIJ:  cpu time    2.5320: real time    2.5659
     EDDAV:  cpu time  552.4126: real time  558.2062
       DOS:  cpu time    0.0029: real time    0.0029
    CHARGE:  cpu time   12.0718: real time   12.1966
    MIXING:  cpu time    0.0401: real time    0.0416
    --------------------------------------------
      LOOP:  cpu time  568.1844: real time  574.1573

 eigenvalue-minimisations  : 46504
 total energy-change (2. order) :-0.5914917E-06  (-0.6740152E-05)
 number of electron     828.0000017 magnetization     144.0000006
 augmentation part      312.6588508 magnetization      94.7010052

 Broyden mixing:
  rms(total) = 0.54709E-02    rms(broyden)= 0.54694E-02
  rms(prec ) = 0.57200E-02
  weight for this iteration     100.00

 eigenvalues of (default mixing * dielectric matrix)
  average eigenvalue GAMMA=   1.0702
  2.5131  1.1462  1.1462  0.8996  0.6383  0.6383  0.5098

 Free energy of the ion-electron system (eV)
  ---------------------------------------------------
  alpha Z        PSCENC =      2606.24521607
  Ewald energy   TEWEN  =    -65007.69462694
  -Hartree energ DENC   =    -34081.97792039
  -exchange      EXHF   =         0.00000000
  -V(xc)+E(xc)   XCENC  =      3632.85907300
  PAW double counting   =    104144.75981284  -107356.36669216
  entropy T*S    EENTRO =        -0.00000000
  eigenvalues    EBANDS =    -11862.07806291
  atomic energy  EATOM  =    107373.91467324
  Solvation  Ediel_sol  =         0.00000000
  ---------------------------------------------------
  free energy    TOTEN  =      -550.33852724 eV

  energy without entropy =     -550.33852724  energy(sigma->0) =     -550.33852724


--------------------------------------------------------------------------------------------------------




--------------------------------------- Iteration      1(  13)  ---------------------------------------


    POTLOK:  cpu time    1.1263: real time    1.1295
    SETDIJ:  cpu time    2.5584: real time    2.5596
     EDDAV:  cpu time  486.8192: real time  491.7564
       DOS:  cpu time    0.0029: real time    0.0029
    CHARGE:  cpu time   12.0528: real time   12.2441
    MIXING:  cpu time    0.0476: real time    0.0496
    --------------------------------------------
      LOOP:  cpu time  502.6072: real time  507.7420

 eigenvalue-minimisations  : 39904
 total energy-change (2. order) : 0.1501301E-04  (-0.1884336E-05)
 number of electron     828.0000017 magnetization     144.0000005
 augmentation part      312.6574571 magnetization      94.7007947

 Broyden mixing:
  rms(total) = 0.17980E-02    rms(broyden)= 0.17942E-02
  rms(prec ) = 0.18594E-02
  weight for this iteration     100.00

 eigenvalues of (default mixing * dielectric matrix)
  average eigenvalue GAMMA=   1.1707
  2.3042  2.3042  1.1164  1.1164  0.6929  0.6929  0.5693  0.5693

 Free energy of the ion-electron system (eV)
  ---------------------------------------------------
  alpha Z        PSCENC =      2606.24521607
  Ewald energy   TEWEN  =    -65007.69462694
  -Hartree energ DENC   =    -34081.90856870
  -exchange      EXHF   =         0.00000000
  -V(xc)+E(xc)   XCENC  =      3632.84149684
  PAW double counting   =    104146.30348460  -107357.84784064
  entropy T*S    EENTRO =        -0.00000000
  eigenvalues    EBANDS =    -11862.19234671
  atomic energy  EATOM  =    107373.91467324
  Solvation  Ediel_sol  =         0.00000000
  ---------------------------------------------------
  free energy    TOTEN  =      -550.33851223 eV

  energy without entropy =     -550.33851223  energy(sigma->0) =     -550.33851223


--------------------------------------------------------------------------------------------------------




--------------------------------------- Iteration      1(  14)  ---------------------------------------


    POTLOK:  cpu time    1.1122: real time    1.1379
    SETDIJ:  cpu time    2.5568: real time    2.5925
     EDDAV:  cpu time  448.6516: real time  453.7720
       DOS:  cpu time    0.0030: real time    0.0030
    CHARGE:  cpu time   11.9731: real time   12.1264
    MIXING:  cpu time    0.0384: real time    0.0424
    --------------------------------------------
      LOOP:  cpu time  464.3350: real time  469.6741

 eigenvalue-minimisations  : 35800
 total energy-change (2. order) :-0.6286820E-05  (-0.2344206E-05)
 number of electron     828.0000017 magnetization     144.0000005
 augmentation part      312.6555318 magnetization      94.7006496

 Broyden mixing:
  rms(total) = 0.10040E-02    rms(broyden)= 0.99712E-03
  rms(prec ) = 0.10456E-02
  weight for this iteration     100.00

 eigenvalues of (default mixing * dielectric matrix)
  average eigenvalue GAMMA=   1.1251
  2.8785  1.5594  1.5594  0.8351  0.7768  0.7768  0.6104  0.6104  0.5190

 Free energy of the ion-electron system (eV)
  ---------------------------------------------------
  alpha Z        PSCENC =      2606.24521607
  Ewald energy   TEWEN  =    -65007.69462694
  -Hartree energ DENC   =    -34081.90463044
  -exchange      EXHF   =         0.00000000
  -V(xc)+E(xc)   XCENC  =      3632.83415344
  PAW double counting   =    104148.09763210  -107359.62583886
  entropy T*S    EENTRO =        -0.00000000
  eigenvalues    EBANDS =    -11862.20509713
  atomic energy  EATOM  =    107373.91467324
  Solvation  Ediel_sol  =         0.00000000
  ---------------------------------------------------
  free energy    TOTEN  =      -550.33851852 eV

  energy without entropy =     -550.33851852  energy(sigma->0) =     -550.33851852


--------------------------------------------------------------------------------------------------------




--------------------------------------- Iteration      1(  15)  ---------------------------------------


    POTLOK:  cpu time    1.1172: real time    1.1305
    SETDIJ:  cpu time    2.5839: real time    2.6018
     EDDAV:  cpu time  423.7372: real time  428.2379
       DOS:  cpu time    0.0030: real time    0.0030
    CHARGE:  cpu time   11.9663: real time   12.1797
    MIXING:  cpu time    0.0383: real time    0.0383
    --------------------------------------------
      LOOP:  cpu time  439.4458: real time  444.1912

 eigenvalue-minimisations  : 33320
 total energy-change (2. order) : 0.2725632E-05  (-0.4259517E-06)
 number of electron     828.0000017 magnetization     144.0000005
 augmentation part      312.6552689 magnetization      94.7006903

 Broyden mixing:
  rms(total) = 0.49058E-03    rms(broyden)= 0.47650E-03
  rms(prec ) = 0.49912E-03
  weight for this iteration     100.00

 eigenvalues of (default mixing * dielectric matrix)
  average eigenvalue GAMMA=   1.0992
  2.7715  1.6395  1.6395  0.9561  0.8077  0.8077  0.6291  0.6291  0.5560  0.5560

 Free energy of the ion-electron system (eV)
  ---------------------------------------------------
  alpha Z        PSCENC =      2606.24521607
  Ewald energy   TEWEN  =    -65007.69462694
  -Hartree energ DENC   =    -34081.92179374
  -exchange      EXHF   =         0.00000000
  -V(xc)+E(xc)   XCENC  =      3632.83880346
  PAW double counting   =    104149.07769188  -107360.62859059
  entropy T*S    EENTRO =        -0.00000000
  eigenvalues    EBANDS =    -11862.16988918
  atomic energy  EATOM  =    107373.91467324
  Solvation  Ediel_sol  =         0.00000000
  ---------------------------------------------------
  free energy    TOTEN  =      -550.33851579 eV

  energy without entropy =     -550.33851579  energy(sigma->0) =     -550.33851579


--------------------------------------------------------------------------------------------------------




--------------------------------------- Iteration      1(  16)  ---------------------------------------


    POTLOK:  cpu time    1.1275: real time    1.1283
    SETDIJ:  cpu time    2.5625: real time    2.5643
     EDDAV:  cpu time  321.7663: real time  325.4105
       DOS:  cpu time    0.0039: real time    0.0040
    --------------------------------------------
      LOOP:  cpu time  325.4601: real time  329.1072

 eigenvalue-minimisations  : 22728
 total energy-change (2. order) :-0.1500885E-06  (-0.1021405E-06)
 number of electron     828.0000017 magnetization     144.0000005
 augmentation part      312.6552689 magnetization      94.7006903

 Free energy of the ion-electron system (eV)
  ---------------------------------------------------
  alpha Z        PSCENC =      2606.24521607
  Ewald energy   TEWEN  =    -65007.69462694
  -Hartree energ DENC   =    -34081.91827577
  -exchange      EXHF   =         0.00000000
  -V(xc)+E(xc)   XCENC  =      3632.83854222
  PAW double counting   =    104149.14137198  -107360.69318661
  entropy T*S    EENTRO =        -0.00000000
  eigenvalues    EBANDS =    -11862.17223015
  atomic energy  EATOM  =    107373.91467324
  Solvation  Ediel_sol  =         0.00000000
  ---------------------------------------------------
  free energy    TOTEN  =      -550.33851594 eV

  energy without entropy =     -550.33851594  energy(sigma->0) =     -550.33851594


--------------------------------------------------------------------------------------------------------




 average (electrostatic) potential at core
  the test charge radii are     0.7079  0.7215  0.9698  0.9500
  (the norm of the test charge is              1.0000)
       1 -58.9383       2 -58.9457       3 -58.9529       4 -58.9453       5 -58.9457
       6 -58.9460       7 -58.9383       8 -58.9455       9 -58.9530      10 -58.9455
      11 -58.9451      12 -58.9463      13 -58.9457      14 -58.9451      15 -58.9461
      16 -58.9454      17 -58.9451      18 -58.9461      19 -69.8183      20 -69.8194
      21 -69.8198      22 -69.8192      23 -69.8191      24 -69.8192      25 -69.8190
      26 -69.8194      27 -69.8192      28 -69.7979      29 -69.8192      30 -69.8408
      31 -69.8187      32 -69.8192      33 -69.8197      34 -69.8186      35 -69.8192
      36 -69.8197      37 -85.5587      38 -85.5570      39 -85.5604      40 -85.5587
      41 -85.5585      42 -85.5590      43 -85.5587      44 -85.5571      45 -85.5604
      46 -85.5587      47 -85.5586      48 -85.5589      49 -85.5587      50 -85.5587
      51 -85.5588      52 -85.5579      53 -85.5586      54 -85.5597      55 -85.6462
      56 -85.6446      57 -85.6479      58 -85.6462      59 -85.6459      60 -85.6466
      61 -85.6461      62 -85.6446      63 -85.6480      64 -78.5659      65 -78.5673
      66 -78.5669      67 -78.5667      68 -78.5667      69 -78.5667      70 -78.5661
      71 -78.5673      72 -78.5667      73 -78.5613      74 -78.5666      75 -78.5722
      76 -78.5667      77 -78.5666      78 -78.5669      79 -78.5667      80 -78.5667
      81 -78.5668      82 -78.5826      83 -78.5776      84 -78.5882      85 -78.5829
      86 -78.5823      87 -78.5835      88 -78.5828      89 -78.5823      90 -78.5836
      91 -78.5827      92 -78.5830      93 -78.5831      94 -78.5829      95 -78.5830
      96 -78.5830      97 -78.5826      98 -78.5831      99 -78.5831
 
 
 
 E-fermi :   5.2464     XC(G=0): -10.4947     alpha+bet :-11.8267


 spin component 1

 k-point     1 :       0.0000    0.0000    0.0000
  band No.  band energies     occupation 
      1     -51.0552      1.00000
      2     -51.0504      1.00000
      3     -51.0500      1.00000
      4     -51.0500      1.00000
      5     -51.0500      1.00000
      6     -51.0498      1.00000
      7     -51.0497      1.00000
      8     -51.0496      1.00000
      9     -51.0495      1.00000
     10     -51.0494      1.00000
     11     -51.0491      1.00000
     12     -51.0490      1.00000
     13     -51.0482      1.00000
     14     -51.0475      1.00000
     15     -51.0473      1.00000
     16     -51.0470      1.00000
     17     -51.0464      1.00000
     18     -51.0432      1.00000
     19     -51.0417      1.00000
     20     -51.0372      1.00000
     21     -51.0372      1.00000
     22     -51.0372      1.00000
     23     -51.0372      1.00000
     24     -51.0369      1.00000
     25     -51.0362      1.00000
     26     -51.0362      1.00000
     27     -51.0361      1.00000
     28     -51.0361      1.00000
     29     -51.0360      1.00000
     30     -51.0360      1.00000
     31     -51.0358      1.00000
     32     -51.0356      1.00000
     33     -51.0356      1.00000
     34     -51.0356      1.00000
     35     -51.0355      1.00000
     36     -51.0306      1.00000
     37     -49.6946      1.00000
     38     -49.6901      1.00000
     39     -49.6897      1.00000
     40     -49.6896      1.00000
     41     -49.6896      1.00000
     42     -49.6895      1.00000
     43     -49.6895      1.00000
     44     -49.6894      1.00000
     45     -49.6893      1.00000
     46     -49.6893      1.00000
     47     -49.6892      1.00000
     48     -49.6888      1.00000
     49     -49.6888      1.00000
     50     -49.6887      1.00000
     51     -49.6886      1.00000
     52     -49.6885      1.00000
     53     -49.6883      1.00000
     54     -49.6838      1.00000
     55     -49.5960      1.00000
     56     -49.5911      1.00000
     57     -49.5910      1.00000
     58     -49.5909      1.00000
     59     -49.5907      1.00000
     60     -49.5905      1.00000
     61     -49.5903      1.00000
     62     -49.5900      1.00000
     63     -49.5893      1.00000
     64     -49.5890      1.00000
     65     -49.5888      1.00000
     66     -49.5886      1.00000
     67     -49.5885      1.00000
     68     -49.5884      1.00000
     69     -49.5883      1.00000
     70     -49.5879      1.00000
     71     -49.5878      1.00000
     72     -49.5850      1.00000
     73     -49.5642      1.00000
     74     -49.5617      1.00000
     75     -49.5616      1.00000
     76     -49.5614      1.00000
     77     -49.5613      1.00000
     78     -49.5611      1.00000
     79     -49.5607      1.00000
     80     -49.5596      1.00000
     81     -49.5595      1.00000
     82     -49.5594      1.00000
     83     -49.5593      1.00000
     84     -49.5592      1.00000
     85     -49.5591      1.00000
     86     -49.5587      1.00000
     87     -49.5586      1.00000
     88     -49.5574      1.00000
     89     -49.5574      1.00000
     90     -49.5541      1.00000
     91     -49.5521      1.00000
     92     -49.5487      1.00000
     93     -49.5485      1.00000
     94     -49.5485      1.00000
     95     -49.5484      1.00000
     96     -49.5483      1.00000
     97     -49.5472      1.00000
     98     -49.5472      1.00000
     99     -49.5471      1.00000
    100     -49.5471      1.00000
    101     -49.5470      1.00000
    102     -49.5469      1.00000
    103     -49.5469      1.00000
    104     -49.5468      1.00000
    105     -49.5467      1.00000
    106     -49.5464      1.00000
    107     -49.5463      1.00000
    108     -49.5425      1.00000
    109     -39.8698      1.00000
    110     -39.8693      1.00000
    111     -39.8631      1.00000
    112     -39.8628      1.00000
    113     -39.8627      1.00000
    114     -39.8627      1.00000
    115     -39.8625      1.00000
    116     -39.8622      1.00000
    117     -39.8620      1.00000
    118     -39.8620      1.00000
    119     -39.8619      1.00000
    120     -39.8619      1.00000
    121     -39.8618      1.00000
    122     -39.8617      1.00000
    123     -39.8615      1.00000
    124     -39.8615      1.00000
    125     -39.8551      1.00000
    126     -39.8546      1.00000
    127     -13.2373      1.00000
    128     -13.2350      1.00000
    129     -13.2348      1.00000
    130     -13.2346      1.00000
    131     -13.2263      1.00000
    132     -13.1993      1.00000
    133     -13.0635      1.00000
    134     -13.0550      1.00000
    135     -13.0546      1.00000
    136     -13.0510      1.00000
    137     -13.0459      1.00000
    138     -13.0419      1.00000
    139     -13.0414      1.00000
    140     -13.0353      1.00000
    141     -13.0226      1.00000
    142     -13.0186      1.00000
    143     -13.0186      1.00000
    144     -13.0089      1.00000
    145      -7.6148      1.00000
    146      -7.4115      1.00000
    147      -7.3759      1.00000
    148      -7.3751      1.00000
    149      -7.3750      1.00000
    150      -7.3743      1.00000
    151      -7.1816      1.00000
    152      -7.1811      1.00000
    153      -7.1719      1.00000
    154      -7.1715      1.00000
    155      -7.1518      1.00000
    156      -7.1513      1.00000
    157      -7.1512      1.00000
    158      -7.1507      1.00000
    159      -6.9846      1.00000
    160      -6.9653      1.00000
    161      -6.9649      1.00000
    162      -6.9306      1.00000
    163      -6.9301      1.00000
    164      -6.8719      1.00000
    165      -6.8714      1.00000
    166      -6.8713      1.00000
    167      -6.8708      1.00000
    168      -6.8075      1.00000
    169      -6.8070      1.00000
    170      -6.7807      1.00000
    171      -6.7803      1.00000
    172      -1.8411      1.00000
    173      -1.8367      1.00000
    174      -1.8367      1.00000
    175      -1.8338      1.00000
    176      -1.8180      1.00000
    177      -1.8147      1.00000
    178      -1.8050      1.00000
    179      -1.8017      1.00000
    180      -1.7683      1.00000
    181      -1.7646      1.00000
    182      -1.7551      1.00000
    183      -1.7510      1.00000
    184      -1.2809      1.00000
    185      -1.1997      1.00000
    186      -1.1973      1.00000
    187      -1.1972      1.00000
    188      -1.1949      1.00000
    189      -1.0060      1.00000
    190      -1.0041      1.00000
    191      -0.9752      1.00000
    192      -0.9733      1.00000
    193      -0.9599      1.00000
    194      -0.9577      1.00000
    195      -0.9468      1.00000
    196      -0.9384      1.00000
    197      -0.9313      1.00000
    198      -0.9294      1.00000
    199      -0.9269      1.00000
    200      -0.8853      1.00000
    201      -0.8847      1.00000
    202      -0.8843      1.00000
    203      -0.8841      1.00000
    204      -0.8722      1.00000
    205      -0.8713      1.00000
    206      -0.8689      1.00000
    207      -0.8672      1.00000
    208      -0.8664      1.00000
    209      -0.8653      1.00000
    210      -0.8592      1.00000
    211      -0.8583      1.00000
    212      -0.7039      1.00000
    213      -0.7001      1.00000
    214      -0.7001      1.00000
    215      -0.6968      1.00000
    216      -0.6714      1.00000
    217      -0.6709      1.00000
    218      -0.6239      1.00000
    219      -0.6233      1.00000
    220      -0.6228      1.00000
    221      -0.6223      1.00000
    222      -0.6217      1.00000
    223      -0.6209      1.00000
    224      -0.3529      1.00000
    225      -0.3521      1.00000
    226      -0.3519      1.00000
    227      -0.3514      1.00000
    228      -0.3224      1.00000
    229      -0.3213      1.00000
    230      -0.2916      1.00000
    231      -0.2911      1.00000
    232      -0.2646      1.00000
    233      -0.2639      1.00000
    234      -0.2638      1.00000
    235      -0.2636      1.00000
    236      -0.2608      1.00000
    237      -0.2602      1.00000
    238      -0.2578      1.00000
    239      -0.2489      1.00000
    240      -0.2484      1.00000
    241      -0.2426      1.00000
    242      -0.2204      1.00000
    243      -0.1416      1.00000
    244      -0.1404      1.00000
    245      -0.1401      1.00000
    246      -0.1394      1.00000
    247      -0.1390      1.00000
    248      -0.1384      1.00000
    249      -0.1235      1.00000
    250      -0.1228      1.00000
    251      -0.1228      1.00000
    252      -0.1222      1.00000
    253      -0.1203      1.00000
    254      -0.1197      1.00000
    255      -0.0781      1.00000
    256      -0.0774      1.00000
    257      -0.0595      1.00000
    258      -0.0120      1.00000
    259      -0.0113      1.00000
    260       0.0158      1.00000
    261       0.0159      1.00000
    262       0.0263      1.00000
    263       0.0264      1.00000
    264       0.0423      1.00000
    265       0.0428      1.00000
    266       0.0432      1.00000
    267       0.0442      1.00000
    268       0.0604      1.00000
    269       0.0610      1.00000
    270       0.1493      1.00000
    271       0.1498      1.00000
    272       0.1502      1.00000
    273       0.1508      1.00000
    274       0.1583      1.00000
    275       0.1639      1.00000
    276       0.1656      1.00000
    277       0.1822      1.00000
    278       0.1829      1.00000
    279       0.1923      1.00000
    280       0.1966      1.00000
    281       0.1968      1.00000
    282       0.2076      1.00000
    283       0.2082      1.00000
    284       0.2573      1.00000
    285       0.2583      1.00000
    286       0.2584      1.00000
    287       0.2590      1.00000
    288       0.2781      1.00000
    289       0.2790      1.00000
    290       0.3391      1.00000
    291       0.3394      1.00000
    292       0.3592      1.00000
    293       0.3600      1.00000
    294       0.3601      1.00000
    295       0.3606      1.00000
    296       0.3801      1.00000
    297       0.3832      1.00000
    298       0.4896      1.00000
    299       0.4898      1.00000
    300       0.4900      1.00000
    301       0.4904      1.00000
    302       0.5165      1.00000
    303       0.5171      1.00000
    304       0.5172      1.00000
    305       0.5176      1.00000
    306       0.5585      1.00000
    307       0.5593      1.00000
    308       0.6083      1.00000
    309       0.6093      1.00000
    310       0.6148      1.00000
    311       0.6304      1.00000
    312       0.6312      1.00000
    313       0.6312      1.00000
    314       0.6315      1.00000
    315       0.7520      1.00000
    316       0.7525      1.00000
    317       0.7613      1.00000
    318       0.7614      1.00000
    319       0.7620      1.00000
    320       0.7626      1.00000
    321       0.7904      1.00000
    322       0.7910      1.00000
    323       0.7933      1.00000
    324       0.8459      1.00000
    325       0.8465      1.00000
    326       0.8548      1.00000
    327       0.8554      1.00000
    328       0.9685      1.00000
    329       0.9691      1.00000
    330       0.9691      1.00000
    331       0.9699      1.00000
    332       0.9794      1.00000
    333       1.2396      1.00000
    334       1.2400      1.00000
    335       1.2402      1.00000
    336       1.2405      1.00000
    337       1.2639      1.00000
    338       1.2924      1.00000
    339       1.2930      1.00000
    340       1.3307      1.00000
    341       1.3310      1.00000
    342       1.3587      1.00000
    343       1.3588      1.00000
    344       1.3590      1.00000
    345       1.3593      1.00000
    346       1.4364      1.00000
    347       1.4368      1.00000
    348       1.4642      1.00000
    349       1.4755      1.00000
    350       1.4872      1.00000
    351       1.4878      1.00000
    352       1.5475      1.00000
    353       1.6788      1.00000
    354       1.6800      1.00000
    355       1.6803      1.00000
    356       1.7236      1.00000
    357       1.7237      1.00000
    358       1.7238      1.00000
    359       1.7241      1.00000
    360       1.7654      1.00000
    361       1.7658      1.00000
    362       1.8141      1.00000
    363       1.8143      1.00000
    364       1.8148      1.00000
    365       1.8149      1.00000
    366       1.8264      1.00000
    367       1.8272      1.00000
    368       1.8277      1.00000
    369       1.8284      1.00000
    370       1.8397      1.00000
    371       1.8760      1.00000
    372       1.8865      1.00000
    373       1.9029      1.00000
    374       1.9031      1.00000
    375       1.9174      1.00000
    376       1.9179      1.00000
    377       1.9631      1.00000
    378       1.9639      1.00000
    379       1.9897      1.00000
    380       1.9903      1.00000
    381       1.9991      1.00000
    382       1.9992      1.00000
    383       1.9993      1.00000
    384       1.9997      1.00000
    385       2.0713      1.00000
    386       2.0716      1.00000
    387       2.0814      1.00000
    388       2.0817      1.00000
    389       2.0817      1.00000
    390       2.0820      1.00000
    391       2.0943      1.00000
    392       2.0947      1.00000
    393       2.1160      1.00000
    394       2.1162      1.00000
    395       2.1164      1.00000
    396       2.1168      1.00000
    397       2.1952      1.00000
    398       2.1958      1.00000
    399       2.2882      1.00000
    400       2.2891      1.00000
    401       2.4164      1.00000
    402       2.4165      1.00000
    403       2.4386      1.00000
    404       2.4408      1.00000
    405       2.4410      1.00000
    406       2.4433      1.00000
    407       2.4996      1.00000
    408       2.5155      1.00000
    409       2.5164      1.00000
    410       2.5165      1.00000
    411       2.5173      1.00000
    412       2.5594      1.00000
    413       2.5600      1.00000
    414       2.5654      1.00000
    415       2.7180      1.00000
[...]
   0.316E+00 0.673E+01 -.125E+03   -.440E+00 -.701E+01 0.130E+03   0.765E-01 0.287E+00 -.460E+01   0.316E-03 -.272E-04 0.211E-03
   -.203E+01 0.672E+01 -.124E+03   0.210E+01 -.701E+01 0.129E+03   -.630E-01 0.286E+00 -.454E+01   -.398E-04 -.407E-04 0.110E-03
   0.352E+00 0.672E+01 -.124E+03   -.481E+00 -.701E+01 0.128E+03   0.763E-01 0.285E+00 -.448E+01   0.263E-03 0.271E-04 0.770E-05
   -.231E+01 0.687E+01 -.124E+03   0.239E+01 -.716E+01 0.129E+03   -.786E-01 0.288E+00 -.454E+01   -.823E-04 -.513E-04 0.116E-03
   -.218E+01 0.672E+01 -.124E+03   0.226E+01 -.701E+01 0.129E+03   -.733E-01 0.285E+00 -.454E+01   -.540E-06 -.123E-04 0.127E-03
   -.231E+01 0.657E+01 -.124E+03   0.238E+01 -.686E+01 0.129E+03   -.786E-01 0.282E+00 -.454E+01   -.406E-04 -.156E-04 0.148E-03
   -.231E+01 0.657E+01 -.124E+03   0.238E+01 -.686E+01 0.129E+03   -.785E-01 0.282E+00 -.454E+01   -.659E-04 -.807E-05 0.117E-03
   -.218E+01 0.672E+01 -.124E+03   0.226E+01 -.701E+01 0.129E+03   -.733E-01 0.286E+00 -.454E+01   -.141E-05 -.119E-04 0.148E-03
   -.231E+01 0.687E+01 -.124E+03   0.239E+01 -.716E+01 0.129E+03   -.788E-01 0.288E+00 -.454E+01   -.678E-04 -.585E-04 0.162E-03
   0.423E+01 -.113E+02 -.319E+02   -.431E+01 0.114E+02 0.324E+02   0.707E-01 -.134E+00 -.499E+00   0.845E-05 -.546E-05 0.956E-04
   0.481E+01 -.112E+02 -.320E+02   -.490E+01 0.113E+02 0.325E+02   0.880E-01 -.130E+00 -.502E+00   -.313E-04 -.411E-04 0.894E-04
   0.482E+01 -.114E+02 -.318E+02   -.491E+01 0.115E+02 0.323E+02   0.881E-01 -.139E+00 -.496E+00   -.262E-04 0.196E-04 0.506E-04
   0.461E+01 -.113E+02 -.319E+02   -.470E+01 0.114E+02 0.324E+02   0.829E-01 -.135E+00 -.499E+00   -.799E-05 -.135E-04 0.907E-04
   0.470E+01 -.113E+02 -.319E+02   -.479E+01 0.114E+02 0.324E+02   0.835E-01 -.134E+00 -.499E+00   -.326E-05 -.575E-05 0.101E-03
   0.471E+01 -.113E+02 -.319E+02   -.480E+01 0.114E+02 0.324E+02   0.837E-01 -.134E+00 -.499E+00   -.545E-05 -.118E-04 0.830E-04
   0.424E+01 -.113E+02 -.319E+02   -.432E+01 0.114E+02 0.324E+02   0.717E-01 -.135E+00 -.499E+00   0.177E-04 0.304E-05 0.100E-03
   0.481E+01 -.114E+02 -.320E+02   -.490E+01 0.115E+02 0.325E+02   0.877E-01 -.139E+00 -.502E+00   -.234E-04 0.262E-04 0.127E-03
   0.482E+01 -.112E+02 -.318E+02   -.491E+01 0.113E+02 0.323E+02   0.878E-01 -.130E+00 -.495E+00   -.246E-04 -.265E-04 0.742E-04
   0.112E+02 -.462E+01 0.318E+02   -.114E+02 0.471E+01 -.323E+02   0.134E+00 -.828E-01 0.499E+00   0.349E-06 -.164E-04 -.108E-03
   0.114E+02 -.463E+01 0.319E+02   -.115E+02 0.471E+01 -.324E+02   0.136E+00 -.828E-01 0.499E+00   0.197E-04 -.453E-05 -.804E-04
   0.113E+02 -.467E+01 0.319E+02   -.114E+02 0.475E+01 -.324E+02   0.134E+00 -.830E-01 0.498E+00   0.166E-05 -.579E-05 -.953E-04
   0.113E+02 -.466E+01 0.318E+02   -.114E+02 0.474E+01 -.323E+02   0.134E+00 -.830E-01 0.499E+00   -.143E-04 0.698E-05 -.962E-04
   0.113E+02 -.464E+01 0.319E+02   -.115E+02 0.472E+01 -.324E+02   0.136E+00 -.828E-01 0.499E+00   0.443E-04 0.407E-05 -.929E-04
   0.113E+02 -.462E+01 0.319E+02   -.114E+02 0.471E+01 -.324E+02   0.134E+00 -.828E-01 0.499E+00   -.119E-05 -.845E-06 -.969E-04
   0.112E+02 -.464E+01 0.318E+02   -.114E+02 0.472E+01 -.323E+02   0.134E+00 -.830E-01 0.497E+00   0.287E-04 0.355E-04 -.805E-04
   0.114E+02 -.465E+01 0.319E+02   -.115E+02 0.473E+01 -.324E+02   0.136E+00 -.830E-01 0.499E+00   0.563E-05 0.194E-04 -.775E-04
   0.113E+02 -.463E+01 0.319E+02   -.114E+02 0.471E+01 -.324E+02   0.134E+00 -.827E-01 0.500E+00   0.237E-04 0.156E-04 -.125E-03
   -.738E+00 0.167E-01 -.821E-02   0.749E+00 -.199E-01 0.826E-02   -.161E-01 0.326E-02 -.930E-04   0.939E-04 0.886E-05 0.335E-05
   0.173E+00 0.122E+00 0.922E-01   -.171E+00 -.127E+00 -.938E-01   -.432E-03 0.658E-02 0.321E-02   -.341E-05 -.249E-04 -.190E-04
   0.169E+00 -.941E-01 -.850E-01   -.167E+00 0.929E-01 0.865E-01   -.470E-03 -.152E-03 -.321E-02   -.678E-05 0.224E-04 0.398E-04
   -.855E-01 0.129E-01 -.560E-02   0.889E-01 -.162E-01 0.563E-02   -.346E-02 0.320E-02 -.789E-05   -.323E-04 0.186E-04 -.239E-04
   0.234E-01 0.147E-01 0.148E-01   -.203E-01 -.180E-01 -.151E-01   -.307E-02 0.325E-02 0.399E-03   0.910E-05 0.200E-04 -.595E-05
   0.171E-01 0.156E-01 -.920E-02   -.139E-01 -.189E-01 0.947E-02   -.315E-02 0.330E-02 -.403E-03   -.833E-05 0.306E-04 0.777E-05
   -.739E+00 0.716E-02 -.624E-02   0.751E+00 -.104E-01 0.653E-02   -.162E-01 0.328E-02 -.506E-03   0.864E-04 0.892E-05 0.102E-04
   0.175E+00 -.933E-01 0.904E-01   -.173E+00 0.920E-01 -.918E-01   -.286E-03 -.110E-03 0.313E-02   -.140E-04 0.302E-04 -.327E-04
   0.168E+00 0.124E+00 -.821E-01   -.166E+00 -.129E+00 0.833E-01   -.561E-03 0.667E-02 -.275E-02   0.717E-05 -.216E-04 0.386E-04
   -.268E+01 0.427E+01 -.185E+03   0.199E+01 -.388E+01 0.183E+03   0.688E+00 -.389E+00 0.229E+01   -.391E-04 -.120E-04 -.272E-03
   -.255E+01 0.419E+01 -.185E+03   0.186E+01 -.380E+01 0.183E+03   0.689E+00 -.390E+00 0.230E+01   -.801E-05 0.218E-04 -.769E-04
   -.292E+01 0.423E+01 -.185E+03   0.223E+01 -.384E+01 0.183E+03   0.688E+00 -.390E+00 0.229E+01   -.194E-04 -.592E-06 -.182E-03
   -.271E+01 0.425E+01 -.185E+03   0.202E+01 -.386E+01 0.183E+03   0.689E+00 -.389E+00 0.230E+01   -.774E-05 -.574E-04 -.475E-04
   -.263E+01 0.423E+01 -.185E+03   0.194E+01 -.384E+01 0.183E+03   0.689E+00 -.389E+00 0.230E+01   0.400E-05 -.196E-04 -.178E-03
   -.280E+01 0.421E+01 -.185E+03   0.211E+01 -.382E+01 0.183E+03   0.688E+00 -.389E+00 0.230E+01   -.368E-04 -.174E-04 -.118E-03
   -.266E+01 0.417E+01 -.185E+03   0.197E+01 -.378E+01 0.183E+03   0.689E+00 -.389E+00 0.229E+01   -.117E-04 0.457E-04 -.174E-03
   -.258E+01 0.427E+01 -.185E+03   0.189E+01 -.388E+01 0.183E+03   0.689E+00 -.390E+00 0.230E+01   0.150E-05 -.340E-04 -.151E-03
   -.291E+01 0.425E+01 -.185E+03   0.223E+01 -.386E+01 0.183E+03   0.688E+00 -.389E+00 0.230E+01   -.376E-04 0.211E-05 -.201E-03
   -.403E+01 0.274E+01 0.184E+03   0.364E+01 -.206E+01 -.182E+03   0.389E+00 -.684E+00 -.235E+01   0.132E-03 0.106E-04 0.258E-03
   -.386E+01 0.270E+01 0.185E+03   0.346E+01 -.201E+01 -.183E+03   0.397E+00 -.687E+00 -.230E+01   0.741E-04 0.184E-04 0.859E-04
   -.397E+01 0.266E+01 0.187E+03   0.358E+01 -.197E+01 -.184E+03   0.392E+00 -.691E+00 -.224E+01   0.860E-04 -.189E-04 0.814E-04
   -.433E+01 0.286E+01 0.185E+03   0.394E+01 -.218E+01 -.183E+03   0.388E+00 -.688E+00 -.230E+01   -.589E-04 -.204E-04 0.172E-03
   -.408E+01 0.271E+01 0.185E+03   0.368E+01 -.202E+01 -.183E+03   0.397E+00 -.687E+00 -.230E+01   0.117E-03 0.120E-04 0.141E-03
   -.429E+01 0.253E+01 0.185E+03   0.390E+01 -.184E+01 -.183E+03   0.388E+00 -.687E+00 -.230E+01   -.593E-04 0.429E-04 0.104E-03
   -.432E+01 0.252E+01 0.185E+03   0.394E+01 -.183E+01 -.183E+03   0.387E+00 -.686E+00 -.230E+01   -.486E-04 0.224E-04 0.190E-03
   -.408E+01 0.270E+01 0.185E+03   0.368E+01 -.201E+01 -.183E+03   0.398E+00 -.688E+00 -.230E+01   0.126E-03 0.708E-05 0.145E-03
   -.429E+01 0.288E+01 0.185E+03   0.391E+01 -.219E+01 -.183E+03   0.388E+00 -.688E+00 -.229E+01   -.676E-04 -.314E-04 0.913E-04
   -.515E+01 0.506E+01 -.202E+03   0.498E+01 -.507E+01 0.204E+03   0.327E+00 0.124E-01 -.198E+01   -.310E-03 -.651E-05 0.870E-04
   0.480E+01 0.507E+01 -.201E+03   -.494E+01 -.508E+01 0.203E+03   0.130E+00 0.125E-01 -.197E+01   -.101E-03 -.114E-04 0.527E-04
   0.480E+01 0.507E+01 -.201E+03   -.495E+01 -.508E+01 0.203E+03   0.131E+00 0.125E-01 -.199E+01   0.986E-04 -.238E-04 0.159E-03
   0.335E+01 0.507E+01 -.202E+03   -.343E+01 -.508E+01 0.203E+03   0.779E-01 0.127E-01 -.198E+01   0.138E-04 0.218E-04 0.103E-03
   0.396E+01 0.524E+01 -.201E+03   -.404E+01 -.526E+01 0.203E+03   0.815E-01 0.155E-01 -.198E+01   -.248E-04 0.344E-04 0.752E-04
   0.396E+01 0.489E+01 -.201E+03   -.404E+01 -.490E+01 0.203E+03   0.817E-01 0.975E-02 -.198E+01   -.492E-04 -.968E-05 0.146E-03
   0.335E+01 0.506E+01 -.202E+03   -.343E+01 -.508E+01 0.203E+03   0.779E-01 0.123E-01 -.198E+01   0.330E-04 -.570E-04 0.133E-03
   0.396E+01 0.490E+01 -.201E+03   -.404E+01 -.490E+01 0.203E+03   0.816E-01 0.987E-02 -.198E+01   -.364E-04 -.508E-04 0.931E-04
   0.396E+01 0.524E+01 -.201E+03   -.404E+01 -.526E+01 0.203E+03   0.815E-01 0.157E-01 -.198E+01   -.388E-04 0.154E-05 0.183E-03
   -.510E+01 -.356E+01 0.202E+03   0.512E+01 0.364E+01 -.204E+03   -.181E-01 -.766E-01 0.198E+01   -.941E-04 -.209E-03 -.114E-03
   -.483E+01 -.380E+01 0.202E+03   0.483E+01 0.388E+01 -.203E+03   -.459E-02 -.811E-01 0.198E+01   0.102E-03 0.560E-04 -.950E-04
   -.514E+01 -.402E+01 0.201E+03   0.516E+01 0.411E+01 -.203E+03   -.184E-01 -.837E-01 0.198E+01   -.117E-03 -.365E-04 -.735E-04
   -.509E+01 -.380E+01 0.202E+03   0.510E+01 0.388E+01 -.203E+03   -.127E-01 -.811E-01 0.198E+01   0.653E-05 0.127E-03 -.145E-03
   -.495E+01 -.379E+01 0.202E+03   0.496E+01 0.387E+01 -.203E+03   -.113E-01 -.797E-01 0.198E+01   0.441E-04 0.898E-05 -.965E-04
   -.513E+01 -.380E+01 0.201E+03   0.514E+01 0.388E+01 -.203E+03   -.130E-01 -.804E-01 0.198E+01   -.260E-04 0.623E-04 -.141E-03
   -.509E+01 -.403E+01 0.202E+03   0.511E+01 0.411E+01 -.204E+03   -.171E-01 -.836E-01 0.198E+01   -.680E-04 0.827E-04 -.122E-03
   -.482E+01 -.380E+01 0.202E+03   0.482E+01 0.388E+01 -.204E+03   -.380E-02 -.804E-01 0.198E+01   0.136E-03 -.609E-04 -.958E-04
   -.515E+01 -.356E+01 0.201E+03   0.518E+01 0.364E+01 -.203E+03   -.200E-01 -.772E-01 0.198E+01   -.147E-03 -.100E-04 -.984E-04
 -----------------------------------------------------------------------------------------------
   -.101E+02 0.941E+01 -.610E-02   -.711E-13 0.928E-13 -.824E-12   0.101E+02 -.941E+01 0.617E-02   0.174E-03 0.157E-03 -.147E-04
 
 
 POSITION                                       TOTAL-FORCE (eV/Angst)
 -----------------------------------------------------------------------------------
      0.69431      1.16678      8.50361        -0.003609     -0.009584      0.000121
      4.62006      1.16961      8.52669        -0.001049      0.000530      0.000112
      8.54582      1.17244      8.54977        -0.003790      0.010745      0.000139
      0.68421      5.09252      8.52669         0.000142     -0.000588     -0.000057
      4.60997      5.09535      8.54977        -0.000114     -0.000598     -0.000053
      8.53573      5.09818      8.57285         0.000001     -0.000588     -0.000029
      0.67412      9.01827      8.54977        -0.003741      0.010542      0.000188
      4.59988      9.02110      8.57285        -0.001049      0.000387      0.000081
      8.52563      9.02393      8.59592        -0.003832     -0.010032     -0.000013
      0.73117      1.20377      1.72829         0.000360     -0.000071      0.000092
      4.65693      1.20660      1.75137         0.000272      0.000096     -0.000489
      8.58269      1.20942      1.77444        -0.000713      0.000211      0.000415
      0.72108      5.12951      1.75137        -0.000691     -0.000049     -0.000027
      4.64684      5.13234      1.77444         0.000689     -0.000351     -0.000258
      8.57259      5.13517      1.79752        -0.000491      0.000247      0.000303
      0.71099      9.05525      1.77444        -0.000627      0.000090      0.000079
      4.63674      9.05808      1.79752         0.000558      0.000234     -0.000254
      8.56250      9.06091      1.82060        -0.000403     -0.000502      0.000150
      2.69694      1.20483      2.03281        -0.000299      0.000193      0.000617
      6.62270      1.20766      2.05588         0.000621     -0.000177      0.000248
     10.54845      1.21049      2.07896        -0.000930     -0.000010     -0.000867
      2.68685      5.13057      2.05588        -0.000545     -0.000111     -0.000045
      6.61260      5.13340      2.07896         0.000450     -0.000013     -0.000078
     10.53836      5.13623      2.10204        -0.000863      0.000070      0.000080
      2.67675      9.05632      2.07896        -0.000402     -0.000126     -0.000340
      6.60251      9.05915      2.10204         0.000574      0.000181      0.000259
     10.52827      9.06198      2.12512        -0.001086     -0.000100      0.000091
      0.69972     -0.79898      8.19910        -0.047955      0.000650      0.002085
      4.62547     -0.79615      8.22217         0.005702      0.000383      0.000110
      8.55123     -0.79332      8.24525        -0.052470      0.000086     -0.003835
      0.68962      3.12676      8.22217        -0.000589      0.000862     -0.000280
      4.61538      3.12959      8.24525         0.001293      0.000173      0.000041
      8.54114      3.13242      8.26833        -0.000608     -0.000543      0.000240
      0.67953      7.05251      8.24525        -0.000550     -0.000456     -0.000298
      4.60529      7.05534      8.26833         0.001301      0.000243      0.000027
      8.53104      7.05817      8.29141        -0.000655      0.000913      0.000265
     -1.24734      1.15770      6.42338        -0.004466      0.000005     -0.000203
      2.67842      1.16053      6.44646         0.002036      0.002046     -0.001782
      6.60417      1.16336      6.46954         0.002123     -0.001866      0.001939
     -1.25744      5.08344      6.44646        -0.000174      0.000068     -0.000027
      2.66832      5.08627      6.46954         0.000082      0.000112     -0.000149
      6.59408      5.08910      6.49262         0.000130      0.000091      0.000144
     -1.26753      9.00919      6.46954        -0.004516      0.000133     -0.000174
      2.65823      9.01202      6.49262         0.001987     -0.001832     -0.001724
      6.58398      9.01484      6.51569         0.002047      0.002045      0.001862
      0.73386      3.14543      3.80852        -0.000449      0.000091      0.000121
      4.65962      3.14826      3.83160         0.000699      0.000096      0.000283
      8.58538      3.15109      3.85467        -0.000280     -0.000047     -0.000254
      0.72377      7.07118      3.83160        -0.000345     -0.000004      0.000095
      4.64953      7.07401      3.85467         0.000631      0.000058      0.000084
      8.57528      7.07684      3.87775        -0.000332      0.000070     -0.000045
      0.71368     10.99692      3.85467        -0.000308     -0.000006     -0.001360
      4.63943     10.99975      3.87775         0.000825     -0.000008      0.000282
      8.56519     11.00258      3.90083        -0.000305      0.000141      0.001256
      0.73979      3.17832      0.02308        -0.004524     -0.000008     -0.000039
      4.66555      3.18115      0.04616         0.001305      0.001300      0.001674
      8.59130      3.18398      0.06923         0.001311     -0.001333     -0.001659
      0.72970      7.10407      0.04616        -0.000111     -0.000035     -0.000003
      4.65545      7.10690      0.06923         0.000100     -0.000012      0.000133
      8.58121      7.10973      0.09231         0.000074      0.000007     -0.000129
      0.71960     11.02981      0.06923        -0.004545      0.000064     -0.000208
      4.64536     11.03264      0.09231         0.001383     -0.001332      0.001633
      8.57112     11.03547      0.11539         0.001272      0.001324     -0.001498
      2.61849      1.23237      4.04033         0.000002     -0.000289      0.000634
      6.54425      1.23520      4.06340        -0.000198     -0.000054     -0.001202
     10.47001      1.23803      4.08648         0.000158     -0.000044      0.000293
      2.60840      5.15812      4.06340         0.000046     -0.000110      0.000122
      6.53415      5.16095      4.08648        -0.000039     -0.000113     -0.000299
     10.45991      5.16378      4.10956         0.000145     -0.000080     -0.000130
      2.59830      9.08386      4.08648        -0.000069      0.000172      0.000913
      6.52406      9.08669      4.10956        -0.000220      0.000014     -0.001120
     10.44982      9.08952      4.13264         0.000270     -0.000046     -0.000010
      0.67192     -0.72062      6.19157        -0.001852     -0.000702      0.017571
      4.59767     -0.71779      6.21465        -0.001747     -0.000131      0.000065
      8.52343     -0.71497      6.23773        -0.001834      0.000424     -0.017008
      0.66182      3.20512      6.21465         0.000693     -0.000151      0.000508
      4.58758      3.20795      6.23773        -0.001444     -0.000324     -0.000011
      8.51333      3.21078      6.26081         0.000886     -0.000235     -0.000269
      0.65173      7.13086      6.23773         0.000750     -0.000272      0.000581
      4.57748      7.13369      6.26081        -0.001591     -0.000234      0.000067
      8.50324      7.13652      6.28389         0.001025     -0.000299     -0.000373
     -1.27712     -0.80255      8.61921         0.150166      0.000068      0.001830
      2.65864     -0.79971      8.64235        -0.014368     -0.000045     -0.001902
      6.58440     -0.79688      8.66542        -0.014435     -0.000077      0.001650
     -1.27721      3.12320      8.64235         0.000958     -0.000046      0.000044
      2.64854      3.12603      8.66542        -0.000224     -0.000775      0.000145
      6.57430      3.12886      8.68850        -0.000134      0.000646     -0.000129
     -1.28731      7.04895      8.66542         0.000954     -0.000005      0.000020
      2.63845      7.05177      8.68850        -0.000279      0.000614      0.000143
      6.56421      7.05460      8.71158        -0.000085     -0.000791     -0.000189
      2.69403      3.17166      1.61263         0.001084     -0.001523     -0.000677
      6.61978      3.17449      1.63571        -0.001364     -0.000026     -0.000138
     10.54554      3.17732      1.65879         0.001161      0.000899      0.000406
      2.68393      7.09741      1.63571         0.000165      0.000115     -0.000204
      6.60969      7.10024      1.65879        -0.000188     -0.000297     -0.000081
     10.53545      7.10307      1.68187         0.000240     -0.000102      0.000014
      2.67384     11.02315      1.65879         0.000768      0.001013     -0.000410
      6.59960     11.02598      1.68187        -0.001657     -0.000095     -0.000325
     10.52535     11.02881      1.70494         0.001709     -0.001198      0.000398
 -----------------------------------------------------------------------------------
    total drift:                               -0.000019     -0.000135      0.000061


--------------------------------------------------------------------------------------------------------



  FREE ENERGIE OF THE ION-ELECTRON SYSTEM (eV)
  ---------------------------------------------------
  free  energy   TOTEN  =      -550.33851594 eV

  energy  without entropy=     -550.33851594  energy(sigma->0) =     -550.33851594
 


--------------------------------------------------------------------------------------------------------


    POTLOK:  cpu time    3.6824: real time    3.6912


--------------------------------------------------------------------------------------------------------


     LOOP+:  cpu time 9137.0957: real time 9233.6086
    4ORBIT:  cpu time    0.0000: real time    0.0000

 total amount of memory used by VASP MPI-rank0  1508757. kBytes
=======================================================================

   base      :      30000. kBytes
   nonl-proj :      85790. kBytes
   fftplans  :      89726. kBytes
   grid      :      70158. kBytes
   one-center:        528. kBytes
   wavefun   :    1232555. kBytes
 
  
  
 General timing and accounting informations for this job:
 ========================================================
  
                  Total CPU time used (sec):     9261.439
                            User time (sec):     9161.606
                          System time (sec):       99.833
                         Elapsed time (sec):     9360.276
  
                   Maximum memory used (kb):     1707884.
                   Average memory used (kb):           0.
  
                          Minor page faults:       482279
                          Major page faults:           27
                 Voluntary context switches:        90138
