  20  20   0   0
  0.1215613E+02  0.7687819E-09  0.5623937E-09  0.5623799E-09  0.5000000E-15
  1.000000000000000E-004
  CAR 
 unknown system                          
     18.76858376    -54.86960365  301      4.83869331      1.00000000
    -54.870  0.0000E+00  0.0000E+00  0.0000E+00  0.0000E+00
    -54.624  0.0000E+00  0.0000E+00  0.0000E+00  0.0000E+00
    -54.379  0.0000E+00  0.0000E+00  0.0000E+00  0.0000E+00
    -54.133  0.0000E+00  0.0000E+00  0.0000E+00  0.0000E+00
    -53.888  0.0000E+00  0.0000E+00  0.0000E+00  0.0000E+00
    -53.642  0.0000E+00  0.0000E+00  0.0000E+00  0.0000E+00
    -53.397  0.0000E+00  0.0000E+00  0.0000E+00  0.0000E+00
    -53.151  0.0000E+00  0.0000E+00  0.0000E+00  0.0000E+00
    -52.906  0.0000E+00  0.0000E+00  0.0000E+00  0.0000E+00
    -52.660  0.0000E+00  0.0000E+00  0.0000E+00  0.0000E+00
    -52.415  0.0000E+00  0.0000E+00  0.0000E+00  0.0000E+00
    -52.170  0.0000E+00  0.0000E+00  0.0000E+00  0.0000E+00
    -51.924  0.0000E+00  0.0000E+00  0.0000E+00  0.0000E+00
    -51.679  0.3733E-04  0.0000E+00  0.9162E-05  0.0000E+00
    -51.433  0.1032E+02  0.0000E+00  0.2533E+01  0.0000E+00
    -51.188  0.5975E+01  0.0000E+00  0.4000E+01  0.0000E+00
    -50.942  0.0000E+00  0.0000E+00  0.4000E+01  0.0000E+00
    -50.697  0.0000E+00  0.0000E+00  0.4000E+01  0.0000E+00
    -50.451  0.3031E-11  0.0000E+00  0.4000E+01  0.0000E+00
    -50.206  0.3338E+01  0.0000E+00  0.4819E+01  0.0000E+00
    -49.960  0.2524E+02  0.0000E+00  0.1101E+02  0.0000E+00
    -49.715  0.4017E+01  0.0000E+00  0.1200E+02  0.0000E+00
    -49.469  0.0000E+00  0.0000E+00  0.1200E+02  0.0000E+00
    -49.224  0.0000E+00  0.0000E+00  0.1200E+02  0.0000E+00
    -48.979  0.0000E+00  0.0000E+00  0.1200E+02  0.0000E+00
    -48.733  0.0000E+00  0.0000E+00  0.1200E+02  0.0000E+00
    -48.488  0.0000E+00  0.0000E+00  0.1200E+02  0.0000E+00
    -48.242  0.0000E+00  0.0000E+00  0.1200E+02  0.0000E+00
    -47.997  0.0000E+00  0.0000E+00  0.1200E+02  0.0000E+00
    -47.751  0.0000E+00  0.0000E+00  0.1200E+02  0.0000E+00
    -47.506  0.0000E+00  0.0000E+00  0.1200E+02  0.0000E+00
    -47.260  0.0000E+00  0.0000E+00  0.1200E+02  0.0000E+00
    -47.015  0.0000E+00  0.8326E-09  0.1200E+02  0.2044E-09
    -46.769  0.0000E+00  0.5873E+01  0.1200E+02  0.1442E+01
    -46.524  0.0000E+00  0.1050E+02  0.1200E+02  0.4018E+01
    -46.278  0.0000E+00  0.2315E+02  0.1200E+02  0.9700E+01
    -46.033  0.0000E+00  0.9371E+01  0.1200E+02  0.1200E+02
    -45.788  0.0000E+00  0.0000E+00  0.1200E+02  0.1200E+02
    -45.542  0.0000E+00  0.0000E+00  0.1200E+02  0.1200E+02
    -45.297  0.0000E+00  0.0000E+00  0.1200E+02  0.1200E+02
    -45.051  0.0000E+00  0.0000E+00  0.1200E+02  0.1200E+02
    -44.806  0.0000E+00  0.0000E+00  0.1200E+02  0.1200E+02
    -44.560  0.0000E+00  0.0000E+00  0.1200E+02  0.1200E+02
    -44.315  0.0000E+00  0.0000E+00  0.1200E+02  0.1200E+02
    -44.069  0.0000E+00  0.0000E+00  0.1200E+02  0.1200E+02
    -43.824  0.0000E+00  0.0000E+00  0.1200E+02  0.1200E+02
    -43.578  0.0000E+00  0.0000E+00  0.1200E+02  0.1200E+02
    -43.333  0.0000E+00  0.0000E+00  0.1200E+02  0.1200E+02
    -43.087  0.0000E+00  0.0000E+00  0.1200E+02  0.1200E+02
    -42.842  0.0000E+00  0.0000E+00  0.1200E+02  0.1200E+02
    -42.597  0.0000E+00  0.0000E+00  0.1200E+02  0.1200E+02
    -42.351  0.0000E+00  0.0000E+00  0.1200E+02  0.1200E+02
    -42.106  0.0000E+00  0.0000E+00  0.1200E+02  0.1200E+02
    -41.860  0.0000E+00  0.0000E+00  0.1200E+02  0.1200E+02
    -41.615  0.0000E+00  0.0000E+00  0.1200E+02  0.1200E+02
    -41.369  0.0000E+00  0.0000E+00  0.1200E+02  0.1200E+02
    -41.124  0.0000E+00  0.0000E+00  0.1200E+02  0.1200E+02
    -40.878  0.0000E+00  0.0000E+00  0.1200E+02  0.1200E+02
    -40.633  0.1669E-12  0.1029E-12  0.1200E+02  0.1200E+02
    -40.387  0.2198E+01  0.2033E+01  0.1254E+02  0.1250E+02
    -40.142  0.2708E+02  0.2743E+02  0.1919E+02  0.1923E+02
    -39.897  0.3313E+01  0.3129E+01  0.2000E+02  0.2000E+02
    -39.651  0.0000E+00  0.0000E+00  0.2000E+02  0.2000E+02
    -39.406  0.0000E+00  0.0000E+00  0.2000E+02  0.2000E+02
    -39.160  0.0000E+00  0.0000E+00  0.2000E+02  0.2000E+02
    -38.915  0.0000E+00  0.0000E+00  0.2000E+02  0.2000E+02
    -38.669  0.0000E+00  0.0000E+00  0.2000E+02  0.2000E+02
    -38.424  0.0000E+00  0.0000E+00  0.2000E+02  0.2000E+02
    -38.178  0.0000E+00  0.0000E+00  0.2000E+02  0.2000E+02
    -37.933  0.0000E+00  0.0000E+00  0.2000E+02  0.2000E+02
    -37.687  0.0000E+00  0.0000E+00  0.2000E+02  0.2000E+02
    -37.442  0.0000E+00  0.0000E+00  0.2000E+02  0.2000E+02
    -37.196  0.0000E+00  0.0000E+00  0.2000E+02  0.2000E+02
    -36.951  0.0000E+00  0.0000E+00  0.2000E+02  0.2000E+02
    -36.706  0.0000E+00  0.0000E+00  0.2000E+02  0.2000E+02
    -36.460  0.0000E+00  0.0000E+00  0.2000E+02  0.2000E+02
    -36.215  0.0000E+00  0.0000E+00  0.2000E+02  0.2000E+02
    -35.969  0.0000E+00  0.0000E+00  0.2000E+02  0.2000E+02
    -35.724  0.0000E+00  0.0000E+00  0.2000E+02  0.2000E+02
    -35.478  0.0000E+00  0.0000E+00  0.2000E+02  0.2000E+02
    -35.233  0.0000E+00  0.0000E+00  0.2000E+02  0.2000E+02
    -34.987  0.0000E+00  0.0000E+00  0.2000E+02  0.2000E+02
    -34.742  0.0000E+00  0.0000E+00  0.2000E+02  0.2000E+02
    -34.496  0.0000E+00  0.0000E+00  0.2000E+02  0.2000E+02
    -34.251  0.0000E+00  0.0000E+00  0.2000E+02  0.2000E+02
    -34.005  0.0000E+00  0.0000E+00  0.2000E+02  0.2000E+02
    -33.760  0.0000E+00  0.0000E+00  0.2000E+02  0.2000E+02
    -33.515  0.0000E+00  0.0000E+00  0.2000E+02  0.2000E+02
    -33.269  0.0000E+00  0.0000E+00  0.2000E+02  0.2000E+02
    -33.024  0.0000E+00  0.0000E+00  0.2000E+02  0.2000E+02
    -32.778  0.0000E+00  0.0000E+00  0.2000E+02  0.2000E+02
    -32.533  0.0000E+00  0.0000E+00  0.2000E+02  0.2000E+02
    -32.287  0.0000E+00  0.0000E+00  0.2000E+02  0.2000E+02
    -32.042  0.0000E+00  0.0000E+00  0.2000E+02  0.2000E+02
    -31.796  0.0000E+00  0.0000E+00  0.2000E+02  0.2000E+02
    -31.551  0.0000E+00  0.0000E+00  0.2000E+02  0.2000E+02
    -31.305  0.0000E+00  0.0000E+00  0.2000E+02  0.2000E+02
    -31.060  0.0000E+00  0.0000E+00  0.2000E+02  0.2000E+02
    -30.814  0.0000E+00  0.0000E+00  0.2000E+02  0.2000E+02
    -30.569  0.0000E+00  0.0000E+00  0.2000E+02  0.2000E+02
    -30.324  0.0000E+00  0.0000E+00  0.2000E+02  0.2000E+02
    -30.078  0.0000E+00  0.0000E+00  0.2000E+02  0.2000E+02
    -29.833  0.0000E+00  0.0000E+00  0.2000E+02  0.2000E+02
    -29.587  0.0000E+00  0.0000E+00  0.2000E+02  0.2000E+02
    -29.342  0.0000E+00  0.0000E+00  0.2000E+02  0.2000E+02
    -29.096  0.0000E+00  0.0000E+00  0.2000E+02  0.2000E+02
    -28.851  0.0000E+00  0.0000E+00  0.2000E+02  0.2000E+02
    -28.605  0.0000E+00  0.0000E+00  0.2000E+02  0.2000E+02
    -28.360  0.0000E+00  0.0000E+00  0.2000E+02  0.2000E+02
    -28.114  0.0000E+00  0.0000E+00  0.2000E+02  0.2000E+02
    -27.869  0.0000E+00  0.0000E+00  0.2000E+02  0.2000E+02
    -27.623  0.0000E+00  0.0000E+00  0.2000E+02  0.2000E+02
    -27.378  0.0000E+00  0.0000E+00  0.2000E+02  0.2000E+02
    -27.133  0.0000E+00  0.0000E+00  0.2000E+02  0.2000E+02
    -26.887  0.0000E+00  0.0000E+00  0.2000E+02  0.2000E+02
    -26.642  0.0000E+00  0.0000E+00  0.2000E+02  0.2000E+02
    -26.396  0.0000E+00  0.0000E+00  0.2000E+02  0.2000E+02
    -26.151  0.0000E+00  0.0000E+00  0.2000E+02  0.2000E+02
    -25.905  0.0000E+00  0.0000E+00  0.2000E+02  0.2000E+02
    -25.660  0.0000E+00  0.0000E+00  0.2000E+02  0.2000E+02
    -25.414  0.0000E+00  0.0000E+00  0.2000E+02  0.2000E+02
    -25.169  0.0000E+00  0.0000E+00  0.2000E+02  0.2000E+02
    -24.923  0.0000E+00  0.0000E+00  0.2000E+02  0.2000E+02
    -24.678  0.0000E+00  0.0000E+00  0.2000E+02  0.2000E+02
    -24.432  0.0000E+00  0.0000E+00  0.2000E+02  0.2000E+02
    -24.187  0.0000E+00  0.0000E+00  0.2000E+02  0.2000E+02
    -23.942  0.0000E+00  0.0000E+00  0.2000E+02  0.2000E+02
    -23.696  0.0000E+00  0.0000E+00  0.2000E+02  0.2000E+02
    -23.451  0.0000E+00  0.0000E+00  0.2000E+02  0.2000E+02
    -23.205  0.0000E+00  0.0000E+00  0.2000E+02  0.2000E+02
    -22.960  0.0000E+00  0.0000E+00  0.2000E+02  0.2000E+02
    -22.714  0.0000E+00  0.0000E+00  0.2000E+02  0.2000E+02
    -22.469  0.0000E+00  0.0000E+00  0.2000E+02  0.2000E+02
    -22.223  0.0000E+00  0.0000E+00  0.2000E+02  0.2000E+02
    -21.978  0.0000E+00  0.0000E+00  0.2000E+02  0.2000E+02
    -21.732  0.0000E+00  0.0000E+00  0.2000E+02  0.2000E+02
    -21.487  0.0000E+00  0.0000E+00  0.2000E+02  0.2000E+02
    -21.241  0.0000E+00  0.0000E+00  0.2000E+02  0.2000E+02
    -20.996  0.0000E+00  0.0000E+00  0.2000E+02  0.2000E+02
    -20.751  0.0000E+00  0.0000E+00  0.2000E+02  0.2000E+02
    -20.505  0.0000E+00  0.0000E+00  0.2000E+02  0.2000E+02
    -20.260  0.0000E+00  0.0000E+00  0.2000E+02  0.2000E+02
    -20.014  0.0000E+00  0.0000E+00  0.2000E+02  0.2000E+02
    -19.769  0.0000E+00  0.0000E+00  0.2000E+02  0.2000E+02
    -19.523  0.0000E+00  0.0000E+00  0.2000E+02  0.2000E+02
    -19.278  0.0000E+00  0.0000E+00  0.2000E+02  0.2000E+02
    -19.032  0.0000E+00  0.0000E+00  0.2000E+02  0.2000E+02
    -18.787  0.0000E+00  0.0000E+00  0.2000E+02  0.2000E+02
    -18.541  0.0000E+00  0.0000E+00  0.2000E+02  0.2000E+02
    -18.296  0.0000E+00  0.0000E+00  0.2000E+02  0.2000E+02
    -18.051  0.0000E+00  0.0000E+00  0.2000E+02  0.2000E+02
    -17.805  0.0000E+00  0.0000E+00  0.2000E+02  0.2000E+02
    -17.560  0.0000E+00  0.0000E+00  0.2000E+02  0.2000E+02
    -17.314  0.0000E+00  0.0000E+00  0.2000E+02  0.2000E+02
    -17.069  0.0000E+00  0.0000E+00  0.2000E+02  0.2000E+02
    -16.823  0.0000E+00  0.0000E+00  0.2000E+02  0.2000E+02
    -16.578  0.0000E+00  0.0000E+00  0.2000E+02  0.2000E+02
    -16.332  0.0000E+00  0.0000E+00  0.2000E+02  0.2000E+02
    -16.087  0.0000E+00  0.0000E+00  0.2000E+02  0.2000E+02
    -15.841  0.0000E+00  0.0000E+00  0.2000E+02  0.2000E+02
    -15.596  0.0000E+00  0.0000E+00  0.2000E+02  0.2000E+02
    -15.350  0.0000E+00  0.0000E+00  0.2000E+02  0.2000E+02
    -15.105  0.0000E+00  0.0000E+00  0.2000E+02  0.2000E+02
    -14.860  0.0000E+00  0.0000E+00  0.2000E+02  0.2000E+02
    -14.614  0.0000E+00  0.0000E+00  0.2000E+02  0.2000E+02
    -14.369  0.0000E+00  0.0000E+00  0.2000E+02  0.2000E+02
    -14.123  0.0000E+00  0.0000E+00  0.2000E+02  0.2000E+02
    -13.878  0.0000E+00  0.0000E+00  0.2000E+02  0.2000E+02
    -13.632  0.1264E-03  0.0000E+00  0.2000E+02  0.2000E+02
    -13.387  0.5498E+01  0.6454E-08  0.2135E+02  0.2000E+02
    -13.141  0.9244E+01  0.2554E+01  0.2362E+02  0.2063E+02
    -12.896  0.1554E+01  0.1287E+02  0.2400E+02  0.2379E+02
    -12.650  0.0000E+00  0.8757E+00  0.2400E+02  0.2400E+02
    -12.405  0.0000E+00  0.0000E+00  0.2400E+02  0.2400E+02
    -12.159  0.0000E+00  0.0000E+00  0.2400E+02  0.2400E+02
    -11.914  0.0000E+00  0.0000E+00  0.2400E+02  0.2400E+02
    -11.669  0.0000E+00  0.0000E+00  0.2400E+02  0.2400E+02
    -11.423  0.0000E+00  0.0000E+00  0.2400E+02  0.2400E+02
    -11.178  0.0000E+00  0.0000E+00  0.2400E+02  0.2400E+02
    -10.932  0.0000E+00  0.0000E+00  0.2400E+02  0.2400E+02
    -10.687  0.0000E+00  0.0000E+00  0.2400E+02  0.2400E+02
    -10.441  0.0000E+00  0.0000E+00  0.2400E+02  0.2400E+02
    -10.196  0.0000E+00  0.0000E+00  0.2400E+02  0.2400E+02
     -9.950  0.0000E+00  0.0000E+00  0.2400E+02  0.2400E+02
     -9.705  0.0000E+00  0.0000E+00  0.2400E+02  0.2400E+02
     -9.459  0.0000E+00  0.0000E+00  0.2400E+02  0.2400E+02
     -9.214  0.0000E+00  0.0000E+00  0.2400E+02  0.2400E+02
     -8.968  0.0000E+00  0.0000E+00  0.2400E+02  0.2400E+02
     -8.723  0.0000E+00  0.0000E+00  0.2400E+02  0.2400E+02
     -8.478  0.0000E+00  0.0000E+00  0.2400E+02  0.2400E+02
     -8.232  0.0000E+00  0.0000E+00  0.2400E+02  0.2400E+02
     -7.987  0.0000E+00  0.0000E+00  0.2400E+02  0.2400E+02
     -7.741  0.5847E-04  0.0000E+00  0.2400E+02  0.2400E+02
     -7.496  0.2282E+01  0.4388E-02  0.2456E+02  0.2400E+02
     -7.250  0.7601E+01  0.4609E+01  0.2643E+02  0.2513E+02
     -7.005  0.6150E+01  0.7953E+01  0.2794E+02  0.2708E+02
     -6.759  0.2623E+00  0.3626E+01  0.2800E+02  0.2797E+02
     -6.514  0.0000E+00  0.1029E+00  0.2800E+02  0.2800E+02
     -6.268  0.0000E+00  0.0000E+00  0.2800E+02  0.2800E+02
     -6.023  0.0000E+00  0.0000E+00  0.2800E+02  0.2800E+02
     -5.777  0.0000E+00  0.0000E+00  0.2800E+02  0.2800E+02
     -5.532  0.0000E+00  0.0000E+00  0.2800E+02  0.2800E+02
     -5.287  0.0000E+00  0.0000E+00  0.2800E+02  0.2800E+02
     -5.041  0.0000E+00  0.0000E+00  0.2800E+02  0.2800E+02
     -4.796  0.0000E+00  0.0000E+00  0.2800E+02  0.2800E+02
     -4.550  0.0000E+00  0.0000E+00  0.2800E+02  0.2800E+02
     -4.305  0.0000E+00  0.0000E+00  0.2800E+02  0.2800E+02
     -4.059  0.0000E+00  0.0000E+00  0.2800E+02  0.2800E+02
     -3.814  0.0000E+00  0.0000E+00  0.2800E+02  0.2800E+02
     -3.568  0.0000E+00  0.0000E+00  0.2800E+02  0.2800E+02
     -3.323  0.0000E+00  0.0000E+00  0.2800E+02  0.2800E+02
     -3.077  0.0000E+00  0.0000E+00  0.2800E+02  0.2800E+02
     -2.832  0.6785E-17  0.0000E+00  0.2800E+02  0.2800E+02
     -2.586  0.5957E-01  0.0000E+00  0.2801E+02  0.2800E+02
     -2.341  0.3676E+01  0.0000E+00  0.2892E+02  0.2800E+02
     -2.096  0.1154E+01  0.0000E+00  0.2920E+02  0.2800E+02
     -1.850  0.2853E+01  0.0000E+00  0.2990E+02  0.2800E+02
     -1.605  0.4054E+00  0.0000E+00  0.3000E+02  0.2800E+02
     -1.359  0.2607E+01  0.0000E+00  0.3064E+02  0.2800E+02
     -1.114  0.8918E+01  0.2518E-04  0.3283E+02  0.2800E+02
     -0.868  0.8135E+01  0.8798E+00  0.3483E+02  0.2822E+02
     -0.623  0.8938E+01  0.4123E+01  0.3702E+02  0.2923E+02
     -0.377  0.1076E+02  0.2475E+01  0.3966E+02  0.2984E+02
     -0.132  0.1347E+02  0.1624E+01  0.4297E+02  0.3023E+02
      0.114  0.8237E+01  0.2730E+01  0.4499E+02  0.3090E+02
      0.359  0.6248E+01  0.5235E+01  0.4652E+02  0.3219E+02
      0.604  0.6283E+01  0.1025E+02  0.4807E+02  0.3470E+02
      0.850  0.4636E+01  0.8439E+01  0.4920E+02  0.3678E+02
      1.095  0.8073E+01  0.9140E+01  0.5119E+02  0.3902E+02
      1.341  0.9550E+01  0.4943E+01  0.5353E+02  0.4023E+02
      1.586  0.1113E+02  0.4169E+01  0.5626E+02  0.4126E+02
      1.832  0.5256E+01  0.6612E+01  0.5755E+02  0.4288E+02
      2.077  0.4822E+01  0.5189E+01  0.5874E+02  0.4415E+02
      2.323  0.6199E+01  0.4451E+01  0.6026E+02  0.4525E+02
      2.568  0.5519E+01  0.5638E+01  0.6161E+02  0.4663E+02
      2.814  0.7510E+01  0.9696E+01  0.6346E+02  0.4901E+02
      3.059  0.6509E+01  0.8833E+01  0.6505E+02  0.5118E+02
      3.305  0.6996E+01  0.3112E+01  0.6677E+02  0.5194E+02
      3.550  0.6032E+01  0.3275E+01  0.6825E+02  0.5274E+02
      3.795  0.6059E+01  0.7073E+01  0.6974E+02  0.5448E+02
      4.041  0.4983E+01  0.5963E+01  0.7096E+02  0.5594E+02
      4.286  0.2445E+01  0.2268E+00  0.7156E+02  0.5600E+02
      4.532  0.1656E+01  0.0000E+00  0.7197E+02  0.5600E+02
      4.777  0.1314E+00  0.0000E+00  0.7200E+02  0.5600E+02
      5.023  0.0000E+00  0.0000E+00  0.7200E+02  0.5600E+02
      5.268  0.0000E+00  0.0000E+00  0.7200E+02  0.5600E+02
      5.514  0.0000E+00  0.0000E+00  0.7200E+02  0.5600E+02
      5.759  0.0000E+00  0.0000E+00  0.7200E+02  0.5600E+02
      6.005  0.0000E+00  0.0000E+00  0.7200E+02  0.5600E+02
      6.250  0.0000E+00  0.0000E+00  0.7200E+02  0.5600E+02
      6.496  0.0000E+00  0.3523E-02  0.7200E+02  0.5600E+02
      6.741  0.0000E+00  0.2633E+01  0.7200E+02  0.5665E+02
      6.986  0.6062E-07  0.9659E+01  0.7200E+02  0.5902E+02
      7.232  0.4027E-01  0.8097E+01  0.7201E+02  0.6101E+02
      7.477  0.4741E-03  0.7910E+01  0.7201E+02  0.6295E+02
      7.723  0.2432E+00  0.8116E+01  0.7207E+02  0.6494E+02
      7.968  0.2121E+00  0.1172E+02  0.7212E+02  0.6782E+02
      8.214  0.9512E+00  0.8801E+01  0.7236E+02  0.6998E+02
      8.459  0.1184E+01  0.5932E+01  0.7265E+02  0.7143E+02
      8.705  0.2502E+01  0.2479E+01  0.7326E+02  0.7204E+02
      8.950  0.3245E+01  0.7212E+00  0.7406E+02  0.7222E+02
      9.196  0.3358E+01  0.1235E+01  0.7488E+02  0.7252E+02
      9.441  0.4695E+01  0.2828E+01  0.7603E+02  0.7322E+02
      9.687  0.2674E+01  0.2719E+01  0.7669E+02  0.7388E+02
      9.932  0.3552E+01  0.5075E+01  0.7756E+02  0.7513E+02
     10.177  0.1986E+01  0.4666E+01  0.7805E+02  0.7627E+02
     10.423  0.3357E+01  0.3827E+01  0.7887E+02  0.7721E+02
     10.668  0.5235E+01  0.3633E+01  0.8016E+02  0.7811E+02
     10.914  0.5562E+01  0.3839E+01  0.8152E+02  0.7905E+02
     11.159  0.4691E+01  0.3937E+01  0.8267E+02  0.8001E+02
     11.405  0.5168E+01  0.2962E+01  0.8394E+02  0.8074E+02
     11.650  0.4222E+01  0.4677E+01  0.8498E+02  0.8189E+02
     11.896  0.5704E+01  0.5788E+01  0.8638E+02  0.8331E+02
     12.141  0.4763E+01  0.6737E+01  0.8755E+02  0.8496E+02
     12.387  0.3759E+01  0.6369E+01  0.8847E+02  0.8653E+02
     12.632  0.4528E+01  0.4076E+01  0.8958E+02  0.8753E+02
     12.878  0.3594E+01  0.4148E+01  0.9046E+02  0.8855E+02
     13.123  0.3677E+01  0.3806E+01  0.9137E+02  0.8948E+02
     13.368  0.3619E+01  0.4474E+01  0.9226E+02  0.9058E+02
     13.614  0.4427E+01  0.4250E+01  0.9334E+02  0.9162E+02
     13.859  0.5280E+01  0.4657E+01  0.9464E+02  0.9276E+02
     14.105  0.2674E+01  0.4989E+01  0.9529E+02  0.9399E+02
     14.350  0.1470E+01  0.3503E+01  0.9566E+02  0.9485E+02
     14.596  0.7177E+00  0.2566E+01  0.9583E+02  0.9548E+02
     14.841  0.4958E+00  0.9041E+00  0.9595E+02  0.9570E+02
     15.087  0.1901E+00  0.9673E+00  0.9600E+02  0.9594E+02
     15.332  0.2052E-05  0.1303E+00  0.9600E+02  0.9597E+02
     15.578  0.0000E+00  0.1210E+00  0.9600E+02  0.9600E+02
     15.823  0.0000E+00  0.0000E+00  0.9600E+02  0.9600E+02
     16.069  0.0000E+00  0.0000E+00  0.9600E+02  0.9600E+02
     16.314  0.0000E+00  0.0000E+00  0.9600E+02  0.9600E+02
     16.559  0.0000E+00  0.0000E+00  0.9600E+02  0.9600E+02
     16.805  0.0000E+00  0.0000E+00  0.9600E+02  0.9600E+02
     17.050  0.0000E+00  0.0000E+00  0.9600E+02  0.9600E+02
     17.296  0.0000E+00  0.0000E+00  0.9600E+02  0.9600E+02
     17.541  0.0000E+00  0.0000E+00  0.9600E+02  0.9600E+02
     17.787  0.0000E+00  0.0000E+00  0.9600E+02  0.9600E+02
     18.032  0.0000E+00  0.0000E+00  0.9600E+02  0.9600E+02
     18.278  0.0000E+00  0.0000E+00  0.9600E+02  0.9600E+02
     18.523  0.0000E+00  0.0000E+00  0.9600E+02  0.9600E+02
     18.769  0.0000E+00  0.0000E+00  0.9600E+02  0.9600E+02
