   20   20    1    2
  0.1215613E+02  0.7687819E-09  0.5623937E-09  0.5623799E-09  0.5000000E-15
  1.000000000000000E-004
  CAR 
 unknown system                          
    128     51     96
 
  0.0000000E+00  0.0000000E+00  0.0000000E+00  0.1000000E-01
    1      -51.522368    -46.791038   1.000000   1.000000
    2      -51.521158    -46.788977   1.000000   1.000000
    3      -51.412376    -46.657135   1.000000   1.000000
    4      -51.411184    -46.655090   1.000000   1.000000
    5      -50.197947    -46.440382   1.000000   1.000000
    6      -50.197579    -46.439864   1.000000   1.000000
    7      -50.051044    -46.394479   1.000000   1.000000
    8      -50.050950    -46.394343   1.000000   1.000000
    9      -49.999254    -46.279611   1.000000   1.000000
   10      -49.999085    -46.279360   1.000000   1.000000
   11      -49.974205    -46.264252   1.000000   1.000000
   12      -49.973543    -46.263311   1.000000   1.000000
   13      -40.366725    -40.364538   1.000000   1.000000
   14      -40.364676    -40.362473   1.000000   1.000000
   15      -40.278733    -40.278169   1.000000   1.000000
   16      -40.276104    -40.275509   1.000000   1.000000
   17      -40.172810    -40.174249   1.000000   1.000000
   18      -40.171401    -40.172832   1.000000   1.000000
   19      -40.170980    -40.172385   1.000000   1.000000
   20      -40.170100    -40.171569   1.000000   1.000000
   21      -13.481978    -13.162531   1.000000   1.000000
   22      -13.424598    -13.105813   1.000000   1.000000
   23      -13.220599    -12.996220   1.000000   1.000000
   24      -13.123577    -12.911041   1.000000   1.000000
   25       -7.632772     -7.431820   1.000000   1.000000
   26       -7.329385     -7.192614   1.000000   1.000000
   27       -7.174437     -7.031441   1.000000   1.000000
   28       -6.967538     -6.736954   1.000000   1.000000
   29       -2.536777     -0.998638   1.000000   1.000000
   30       -2.493533     -0.950194   1.000000   1.000000
   31       -1.428086      0.349812   1.000000   1.000000
   32       -1.360013      0.449669   1.000000   1.000000
   33       -1.245038      0.450698   1.000000   1.000000
   34       -1.041822      0.464897   1.000000   1.000000
   35       -0.966842      0.495076   1.000000   1.000000
   36       -0.430068      0.736906   1.000000   1.000000
   37       -0.388923      0.931405   1.000000   1.000000
   38       -0.359016      1.072707   1.000000   1.000000
   39       -0.307133      1.107761   1.000000   1.000000
   40       -0.158903      1.138621   1.000000   1.000000
   41       -0.095232      1.289601   1.000000   1.000000
   42       -0.092074      1.316781   1.000000   1.000000
   43       -0.010664      1.357940   1.000000   1.000000
   44        0.108606      1.456965   1.000000   1.000000
   45        0.211916      2.272993   1.000000   1.000000
   46        0.306530      2.285557   1.000000   1.000000
   47        0.338558      2.541098   1.000000   1.000000
   48        0.555848      2.876199   1.000000   1.000000
   49        0.623816      3.003121   1.000000   1.000000
   50        0.873906      3.032878   1.000000   1.000000
   51        0.883672      3.203869   1.000000   1.000000
   52        0.942095      3.389771   1.000000   1.000000
   53        0.985112      3.441978   1.000000   1.000000
   54        1.106558      3.564768   1.000000   1.000000
   55        1.213302      3.761964   1.000000   1.000000
   56        1.260408      4.071932   1.000000   1.000000
   57        1.287212      6.626848   1.000000   0.000000
   58        1.392128      6.838540   1.000000   0.000000
   59        1.547378      6.852093   1.000000   0.000000
   60        2.184130      6.930538   1.000000   0.000000
   61        2.268827      7.077242   1.000000   0.000000
   62        2.395302      7.388865   1.000000   0.000000
   63        2.453348      7.409540   1.000000   0.000000
   64        2.496486      7.411319   1.000000   0.000000
   65        3.334015      7.825569   1.000000   0.000000
   66        3.554299      7.865074   1.000000   0.000000
   67        3.557949      7.972230   1.000000   0.000000
   68        3.586328      8.109911   1.000000   0.000000
   69        3.867446      8.159906   1.000000   0.000000
   70        4.087824      8.213612   1.000000   0.000000
   71        4.231845      8.346661   1.000000   0.000000
   72        4.323602      8.428180   1.000000   0.000000
   73        7.151671      8.854919   0.000000   0.000000
   74        8.473980      9.228538   0.000000   0.000000
   75        8.867005      9.362012   0.000000   0.000000
   76        9.093737      9.427035   0.000000   0.000000
   77        9.180601      9.637030   0.000000   0.000000
   78        9.884929     10.070068   0.000000   0.000000
   79       10.117191     10.552189   0.000000   0.000000
   80       10.601209     11.228596   0.000000   0.000000
   81       10.693071     11.426343   0.000000   0.000000
   82       10.944068     11.599610   0.000000   0.000000
   83       11.071457     11.672426   0.000000   0.000000
   84       11.304673     12.027455   0.000000   0.000000
   85       11.373701     12.139314   0.000000   0.000000
   86       11.562795     12.198918   0.000000   0.000000
   87       12.683126     13.146601   0.000000   0.000000
   88       13.176365     13.494545   0.000000   0.000000
   89       13.433328     13.642307   0.000000   0.000000
   90       13.573266     13.731606   0.000000   0.000000
   91       13.703073     13.976294   0.000000   0.000000
   92       14.057976     14.423223   0.000000   0.000000
   93       14.387342     14.660094   0.000000   0.000000
   94       14.631605     14.955657   0.000000   0.000000
   95       14.852036     15.316492   0.000000   0.000000
   96       14.945719     15.344033   0.000000   0.000000
 
  0.2500000E+00  0.0000000E+00  0.0000000E+00  0.2000000E-01
    1      -51.522371    -46.791043   1.000000   1.000000
    2      -51.521155    -46.788980   1.000000   1.000000
    3      -51.412389    -46.657148   1.000000   1.000000
    4      -51.411182    -46.655091   1.000000   1.000000
    5      -50.197960    -46.440390   1.000000   1.000000
    6      -50.197585    -46.439867   1.000000   1.000000
    7      -50.051048    -46.394491   1.000000   1.000000
    8      -50.050961    -46.394356   1.000000   1.000000
    9      -49.999264    -46.279628   1.000000   1.000000
   10      -49.999090    -46.279366   1.000000   1.000000
   11      -49.974214    -46.264259   1.000000   1.000000
   12      -49.973533    -46.263313   1.000000   1.000000
   13      -40.366725    -40.364538   1.000000   1.000000
   14      -40.364694    -40.362491   1.000000   1.000000
   15      -40.278739    -40.278174   1.000000   1.000000
   16      -40.276135    -40.275541   1.000000   1.000000
   17      -40.172679    -40.174118   1.000000   1.000000
   18      -40.171566    -40.172997   1.000000   1.000000
   19      -40.170866    -40.172280   1.000000   1.000000
   20      -40.170223    -40.171683   1.000000   1.000000
   21      -13.480301    -13.161205   1.000000   1.000000
   22      -13.426202    -13.107047   1.000000   1.000000
   23      -13.217502    -12.992620   1.000000   1.000000
   24      -13.126776    -12.914748   1.000000   1.000000
   25       -7.592684     -7.399785   1.000000   1.000000
   26       -7.378413     -7.230571   1.000000   1.000000
   27       -7.145554     -6.991385   1.000000   1.000000
   28       -6.999361     -6.783467   1.000000   1.000000
   29       -2.535150     -0.970193   1.000000   1.000000
   30       -2.491804     -0.918801   1.000000   1.000000
   31       -1.399853      0.316641   1.000000   1.000000
   32       -1.331629      0.376164   1.000000   1.000000
   33       -1.242267      0.496867   1.000000   1.000000
   34       -1.046217      0.501587   1.000000   1.000000
   35       -0.798135      0.501935   1.000000   1.000000
   36       -0.405892      0.737683   1.000000   1.000000
   37       -0.390508      0.930787   1.000000   1.000000
   38       -0.367389      0.973515   1.000000   1.000000
   39       -0.276595      1.126105   1.000000   1.000000
   40       -0.189897      1.228723   1.000000   1.000000
   41       -0.171809      1.287789   1.000000   1.000000
   42       -0.159092      1.338066   1.000000   1.000000
   43       -0.086215      1.393641   1.000000   1.000000
   44        0.029026      1.630979   1.000000   1.000000
   45        0.079879      2.296845   1.000000   1.000000
   46        0.214379      2.387065   1.000000   1.000000
   47        0.349204      2.663844   1.000000   1.000000
   48        0.440711      2.679516   1.000000   1.000000
   49        0.668396      2.712687   1.000000   1.000000
   50        0.797190      2.967077   1.000000   1.000000
   51        0.845311      3.263763   1.000000   1.000000
   52        0.934939      3.286722   1.000000   1.000000
   53        1.142596      3.423671   1.000000   1.000000
   54        1.203742      3.508212   1.000000   1.000000
   55        1.329298      3.752511   1.000000   1.000000
   56        1.359229      3.885118   1.000000   1.000000
   57        1.397537      6.820954   1.000000   0.000000
   58        1.546674      6.907410   1.000000   0.000000
   59        1.547221      6.949062   1.000000   0.000000
   60        2.288041      7.013380   1.000000   0.000000
   61        2.303579      7.065443   1.000000   0.000000
   62        2.472889      7.382847   1.000000   0.000000
   63        2.565607      7.423060   1.000000   0.000000
   64        2.597617      7.480718   1.000000   0.000000
   65        3.230764      7.789642   1.000000   0.000000
   66        3.280744      7.811218   1.000000   0.000000
   67        3.514810      7.935989   1.000000   0.000000
   68        3.546942      7.961450   1.000000   0.000000
   69        3.768243      8.038311   1.000000   0.000000
   70        3.892337      8.215200   1.000000   0.000000
   71        3.941535      8.336781   1.000000   0.000000
   72        4.083382      8.556023   1.000000   0.000000
   73        7.635653      8.582880   0.000000   0.000000
   74        8.785677      9.419994   0.000000   0.000000
   75        9.210977      9.544998   0.000000   0.000000
   76        9.310103      9.672060   0.000000   0.000000
   77        9.330342      9.865529   0.000000   0.000000
   78        9.675764     10.037669   0.000000   0.000000
   79       10.338381     10.819344   0.000000   0.000000
   80       10.562252     11.323160   0.000000   0.000000
   81       10.578911     11.336915   0.000000   0.000000
   82       10.848824     11.557136   0.000000   0.000000
   83       11.062303     11.992291   0.000000   0.000000
   84       11.156399     12.004739   0.000000   0.000000
   85       11.597458     12.077234   0.000000   0.000000
   86       11.688536     12.087208   0.000000   0.000000
   87       12.551420     13.007969   0.000000   0.000000
   88       12.870011     13.235563   0.000000   0.000000
   89       13.504774     13.776404   0.000000   0.000000
   90       13.612628     13.842087   0.000000   0.000000
   91       13.786214     14.284114   0.000000   0.000000
   92       13.889708     14.398291   0.000000   0.000000
   93       13.961304     14.439662   0.000000   0.000000
   94       14.044943     14.524874   0.000000   0.000000
   95       14.271393     14.539574   0.000000   0.000000
   96       14.707712     14.966257   0.000000   0.000000
 
  0.5000000E+00  0.0000000E+00  0.0000000E+00  0.1000000E-01
    1      -51.522371    -46.791042   1.000000   1.000000
    2      -51.521151    -46.788977   1.000000   1.000000
    3      -51.412390    -46.657146   1.000000   1.000000
    4      -51.411174    -46.655085   1.000000   1.000000
    5      -50.197959    -46.440386   1.000000   1.000000
    6      -50.197578    -46.439862   1.000000   1.000000
    7      -50.051048    -46.394490   1.000000   1.000000
    8      -50.050962    -46.394352   1.000000   1.000000
    9      -49.999262    -46.279620   1.000000   1.000000
   10      -49.999093    -46.279368   1.000000   1.000000
   11      -49.974209    -46.264254   1.000000   1.000000
   12      -49.973531    -46.263314   1.000000   1.000000
   13      -40.366687    -40.364499   1.000000   1.000000
   14      -40.364685    -40.362481   1.000000   1.000000
   15      -40.278725    -40.278160   1.000000   1.000000
   16      -40.276125    -40.275530   1.000000   1.000000
   17      -40.172476    -40.173916   1.000000   1.000000
   18      -40.171764    -40.173194   1.000000   1.000000
   19      -40.170517    -40.171953   1.000000   1.000000
   20      -40.170500    -40.171939   1.000000   1.000000
   21      -13.478478    -13.159776   1.000000   1.000000
   22      -13.427891    -13.108324   1.000000   1.000000
   23      -13.214161    -12.988632   1.000000   1.000000
   24      -13.130193    -12.918814   1.000000   1.000000
   25       -7.497748     -7.325831   1.000000   1.000000
   26       -7.482223     -7.310425   1.000000   1.000000
   27       -7.075182     -6.892998   1.000000   1.000000
   28       -7.072611     -6.888220   1.000000   1.000000
   29       -2.533482     -0.938680   1.000000   1.000000
   30       -2.490065     -0.883874   1.000000   1.000000
   31       -1.368166      0.230555   1.000000   1.000000
   32       -1.299450      0.267374   1.000000   1.000000
   33       -1.239360      0.547036   1.000000   1.000000
   34       -1.050627      0.579666   1.000000   1.000000
   35       -0.432995      0.597730   1.000000   1.000000
   36       -0.407161      0.741873   1.000000   1.000000
   37       -0.364455      0.852376   1.000000   1.000000
   38       -0.337654      0.924499   1.000000   1.000000
   39       -0.337071      1.099979   1.000000   1.000000
   40       -0.330834      1.182165   1.000000   1.000000
   41       -0.270549      1.338605   1.000000   1.000000
   42       -0.159143      1.418209   1.000000   1.000000
   43       -0.154675      1.941923   1.000000   1.000000
   44       -0.116835      1.953807   1.000000   1.000000
   45       -0.032595      1.984369   1.000000   1.000000
   46       -0.030010      2.002844   1.000000   1.000000
   47        0.479404      2.457615   1.000000   1.000000
   48        0.545823      2.489345   1.000000   1.000000
   49        0.705398      2.870875   1.000000   1.000000
   50        0.753342      3.077618   1.000000   1.000000
   51        0.782798      3.091323   1.000000   1.000000
   52        0.865920      3.353797   1.000000   1.000000
   53        1.139925      3.379474   1.000000   1.000000
   54        1.239813      3.429244   1.000000   1.000000
   55        1.360095      3.741428   1.000000   1.000000
   56        1.385075      3.782243   1.000000   1.000000
   57        1.430232      6.785443   1.000000   0.000000
   58        1.547049      6.989517   1.000000   0.000000
   59        2.360255      7.058935   1.000000   0.000000
   60        2.416901      7.102325   1.000000   0.000000
   61        2.427549      7.194562   1.000000   0.000000
   62        2.597305      7.355929   1.000000   0.000000
   63        2.626927      7.444856   1.000000   0.000000
   64        2.706385      7.618310   1.000000   0.000000
   65        2.777374      7.729259   1.000000   0.000000
   66        2.782740      7.747367   1.000000   0.000000
   67        3.394330      7.757214   1.000000   0.000000
   68        3.476871      7.907970   1.000000   0.000000
   69        3.585159      7.917909   1.000000   0.000000
   70        3.764010      8.218353   1.000000   0.000000
   71        3.894562      8.257751   1.000000   0.000000
   72        3.911932      8.432035   1.000000   0.000000
   73        8.348231      9.066802   0.000000   0.000000
   74        8.449002      9.166365   0.000000   0.000000
   75        9.313671      9.544890   0.000000   0.000000
   76        9.396432      9.626827   0.000000   0.000000
   77        9.899739     10.288058   0.000000   0.000000
   78        9.964323     10.413393   0.000000   0.000000
   79       10.438494     11.212094   0.000000   0.000000
   80       10.496663     11.436426   0.000000   0.000000
   81       10.673307     11.512034   0.000000   0.000000
   82       11.054974     11.677067   0.000000   0.000000
   83       11.133098     11.795078   0.000000   0.000000
   84       11.207399     11.865525   0.000000   0.000000
   85       11.487996     12.178066   0.000000   0.000000
   86       11.989842     12.416481   0.000000   0.000000
   87       12.370472     12.889634   0.000000   0.000000
   88       12.434215     12.951440   0.000000   0.000000
   89       12.528280     13.177317   0.000000   0.000000
   90       12.691936     13.288576   0.000000   0.000000
   91       13.625185     14.000516   0.000000   0.000000
   92       13.658107     14.006791   0.000000   0.000000
   93       13.878769     14.145898   0.000000   0.000000
   94       14.114280     14.292909   0.000000   0.000000
   95       14.793250     14.873904   0.000000   0.000000
   96       14.905987     15.259501   0.000000   0.000000
 
  0.0000000E+00  0.2000000E+00 -0.4336809E-18  0.2000000E-01
    1      -51.522253    -46.790847   1.000000   1.000000
    2      -51.521272    -46.789180   1.000000   1.000000
    3      -51.412270    -46.656951   1.000000   1.000000
    4      -51.411297    -46.655288   1.000000   1.000000
    5      -50.197924    -46.440341   1.000000   1.000000
    6      -50.197618    -46.439915   1.000000   1.000000
    7      -50.051033    -46.394467   1.000000   1.000000
    8      -50.050965    -46.394360   1.000000   1.000000
    9      -49.999233    -46.279584   1.000000   1.000000
   10      -49.999108    -46.279392   1.000000   1.000000
   11      -49.974143    -46.264170   1.000000   1.000000
   12      -49.973598    -46.263405   1.000000   1.000000
   13      -40.366494    -40.364297   1.000000   1.000000
   14      -40.364859    -40.362650   1.000000   1.000000
   15      -40.278460    -40.277886   1.000000   1.000000
   16      -40.276335    -40.275736   1.000000   1.000000
   17      -40.172849    -40.174284   1.000000   1.000000
   18      -40.171772    -40.173207   1.000000   1.000000
   19      -40.170711    -40.172127   1.000000   1.000000
   20      -40.169947    -40.171409   1.000000   1.000000
   21      -13.457936    -13.146496   1.000000   1.000000
   22      -13.396639    -13.086715   1.000000   1.000000
   23      -13.246534    -13.011998   1.000000   1.000000
   24      -13.153085    -12.928958   1.000000   1.000000
   25       -7.606463     -7.413598   1.000000   1.000000
   26       -7.297317     -7.153384   1.000000   1.000000
   27       -7.241037     -7.094129   1.000000   1.000000
   28       -7.004111     -6.784061   1.000000   1.000000
   29       -2.383746     -0.898154   1.000000   1.000000
   30       -2.325528     -0.721834   1.000000   1.000000
   31       -1.340036      0.033813   1.000000   1.000000
   32       -1.252226      0.334327   1.000000   1.000000
   33       -1.250031      0.443878   1.000000   1.000000
   34       -1.020522      0.472877   1.000000   1.000000
   35       -0.952453      0.578902   1.000000   1.000000
   36       -0.561813      0.720134   1.000000   1.000000
   37       -0.532683      0.786881   1.000000   1.000000
   38       -0.530539      1.056761   1.000000   1.000000
   39       -0.471878      1.149812   1.000000   1.000000
   40       -0.354358      1.163348   1.000000   1.000000
   41       -0.284095      1.289868   1.000000   1.000000
   42       -0.176389      1.338362   1.000000   1.000000
   43       -0.100745      1.455843   1.000000   1.000000
   44       -0.047187      1.956665   1.000000   1.000000
   45        0.006847      2.130514   1.000000   1.000000
   46        0.217452      2.375288   1.000000   1.000000
   47        0.392195      2.507302   1.000000   1.000000
   48        0.631698      2.791702   1.000000   1.000000
   49        0.659240      2.937885   1.000000   1.000000
   50        0.851944      3.023425   1.000000   1.000000
   51        0.951777      3.095606   1.000000   1.000000
   52        1.101435      3.160576   1.000000   1.000000
   53        1.144573      3.334629   1.000000   1.000000
   54        1.292748      3.757831   1.000000   1.000000
   55        1.371505      3.758609   1.000000   1.000000
   56        1.400457      4.008191   1.000000   1.000000
   57        1.451422      6.695698   1.000000   0.000000
   58        1.548860      6.850833   1.000000   0.000000
   59        1.681269      6.943875   1.000000   0.000000
   60        2.193201      7.028460   1.000000   0.000000
   61        2.328788      7.125389   1.000000   0.000000
   62        2.570113      7.179485   1.000000   0.000000
   63        2.592495      7.313951   1.000000   0.000000
   64        2.640731      7.567700   1.000000   0.000000
   65        3.025050      7.698459   1.000000   0.000000
   66        3.303457      7.887304   1.000000   0.000000
   67        3.491145      7.967234   1.000000   0.000000
   68        3.646534      8.029606   1.000000   0.000000
   69        3.673242      8.127861   1.000000   0.000000
   70        3.933457      8.151689   1.000000   0.000000
   71        4.150765      8.311489   1.000000   0.000000
   72        4.200404      8.694329   1.000000   0.000000
   73        7.630066      8.757697   0.000000   0.000000
   74        8.652386      9.282915   0.000000   0.000000
   75        9.101315      9.665175   0.000000   0.000000
   76        9.304655      9.928162   0.000000   0.000000
   77        9.700965     10.066826   0.000000   0.000000
   78        9.910122     10.249784   0.000000   0.000000
   79       10.022069     10.622655   0.000000   0.000000
   80       10.218593     10.737491   0.000000   0.000000
   81       10.424589     11.273592   0.000000   0.000000
   82       10.607276     11.501179   0.000000   0.000000
   83       11.134584     11.722548   0.000000   0.000000
   84       11.355898     11.986000   0.000000   0.000000
   85       11.411675     12.024902   0.000000   0.000000
   86       11.767703     12.178350   0.000000   0.000000
   87       12.868407     13.171063   0.000000   0.000000
   88       13.014728     13.257036   0.000000   0.000000
   89       13.312593     13.647723   0.000000   0.000000
   90       13.412886     13.721952   0.000000   0.000000
   91       13.613439     13.893286   0.000000   0.000000
   92       13.650303     14.005221   0.000000   0.000000
   93       13.665831     14.051118   0.000000   0.000000
   94       13.731958     14.090545   0.000000   0.000000
   95       14.273007     14.583951   0.000000   0.000000
   96       14.340351     15.051053   0.000000   0.000000
 
  0.2500000E+00  0.2000000E+00 -0.4336809E-18  0.2000000E-01
    1      -51.522255    -46.790850   1.000000   1.000000
    2      -51.521273    -46.789185   1.000000   1.000000
    3      -51.412269    -46.656949   1.000000   1.000000
    4      -51.411293    -46.655286   1.000000   1.000000
    5      -50.197921    -46.440339   1.000000   1.000000
    6      -50.197615    -46.439914   1.000000   1.000000
    7      -50.051041    -46.394477   1.000000   1.000000
    8      -50.050972    -46.394369   1.000000   1.000000
    9      -49.999246    -46.279601   1.000000   1.000000
   10      -49.999108    -46.279395   1.000000   1.000000
   11      -49.974146    -46.264171   1.000000   1.000000
   12      -49.973602    -46.263411   1.000000   1.000000
   13      -40.366504    -40.364308   1.000000   1.000000
   14      -40.364861    -40.362652   1.000000   1.000000
   15      -40.278471    -40.277896   1.000000   1.000000
   16      -40.276352    -40.275753   1.000000   1.000000
   17      -40.172746    -40.174181   1.000000   1.000000
   18      -40.171914    -40.173347   1.000000   1.000000
   19      -40.170596    -40.172020   1.000000   1.000000
   20      -40.170063    -40.171518   1.000000   1.000000
   21      -13.456029    -13.144857   1.000000   1.000000
   22      -13.398482    -13.088273   1.000000   1.000000
   23      -13.243466    -13.008481   1.000000   1.000000
   24      -13.156237    -12.932561   1.000000   1.000000
   25       -7.565489     -7.378658   1.000000   1.000000
   26       -7.347019     -7.194355   1.000000   1.000000
   27       -7.208490     -7.052632   1.000000   1.000000
   28       -7.040963     -6.833413   1.000000   1.000000
   29       -2.381873     -0.853268   1.000000   1.000000
   30       -2.324528     -0.717357   1.000000   1.000000
   31       -1.318958      0.136266   1.000000   1.000000
   32       -1.251591      0.341138   1.000000   1.000000
   33       -1.234711      0.438845   1.000000   1.000000
   34       -1.027991      0.458823   1.000000   1.000000
   35       -0.828268      0.525506   1.000000   1.000000
   36       -0.555694      0.761564   1.000000   1.000000
   37       -0.546635      0.785757   1.000000   1.000000
   38       -0.539570      1.031531   1.000000   1.000000
   39       -0.464948      1.088692   1.000000   1.000000
   40       -0.341029      1.218553   1.000000   1.000000
   41       -0.257580      1.345539   1.000000   1.000000
   42       -0.188606      1.428383   1.000000   1.000000
   43       -0.143786      1.515357   1.000000   1.000000
   44       -0.052366      1.825585   1.000000   1.000000
   45       -0.004113      2.229793   1.000000   1.000000
   46        0.135151      2.479316   1.000000   1.000000
   47        0.266490      2.552606   1.000000   1.000000
   48        0.496387      2.651730   1.000000   1.000000
   49        0.711321      2.683892   1.000000   1.000000
   50        0.946331      2.835785   1.000000   1.000000
   51        1.065787      3.020496   1.000000   1.000000
   52        1.123307      3.064880   1.000000   1.000000
   53        1.145940      3.494060   1.000000   1.000000
   54        1.279746      3.690534   1.000000   1.000000
   55        1.321005      3.775776   1.000000   1.000000
   56        1.434114      3.949125   1.000000   1.000000
   57        1.491780      6.864150   1.000000   0.000000
   58        1.567338      6.875258   1.000000   0.000000
   59        1.765394      6.931913   1.000000   0.000000
   60        2.207965      7.089913   1.000000   0.000000
   61        2.448174      7.208363   1.000000   0.000000
   62        2.491697      7.321300   1.000000   0.000000
   63        2.671163      7.393728   1.000000   0.000000
   64        2.805372      7.562399   1.000000   0.000000
   65        2.977185      7.674399   1.000000   0.000000
   66        3.297573      7.841768   1.000000   0.000000
   67        3.390164      7.897829   1.000000   0.000000
   68        3.491682      7.934908   1.000000   0.000000
   69        3.536104      8.002086   1.000000   0.000000
   70        3.741062      8.164300   1.000000   0.000000
   71        4.000006      8.208180   1.000000   0.000000
   72        4.104043      8.514953   1.000000   0.000000
   73        8.045218      8.992834   0.000000   0.000000
   74        9.023455      9.715000   0.000000   0.000000
   75        9.375816      9.838520   0.000000   0.000000
   76        9.395869      9.907440   0.000000   0.000000
   77        9.725492     10.100760   0.000000   0.000000
   78        9.786234     10.208411   0.000000   0.000000
   79        9.928395     10.785014   0.000000   0.000000
   80       10.439611     10.960718   0.000000   0.000000
   81       10.557749     11.076827   0.000000   0.000000
   82       10.751889     11.747249   0.000000   0.000000
   83       11.096613     11.879152   0.000000   0.000000
   84       11.375850     11.950081   0.000000   0.000000
   85       11.446004     12.011047   0.000000   0.000000
   86       11.785962     12.257253   0.000000   0.000000
   87       12.567684     12.989546   0.000000   0.000000
   88       12.802549     13.186113   0.000000   0.000000
   89       13.050894     13.392608   0.000000   0.000000
   90       13.184888     13.501269   0.000000   0.000000
   91       13.217672     13.586983   0.000000   0.000000
   92       13.372981     13.812948   0.000000   0.000000
   93       13.522690     13.958863   0.000000   0.000000
   94       13.630200     13.992185   0.000000   0.000000
   95       13.709849     14.106538   0.000000   0.000000
   96       13.811846     14.240004   0.000000   0.000000
 
  0.5000000E+00  0.2000000E+00 -0.4336809E-18  0.2000000E-01
    1      -51.522256    -46.790849   1.000000   1.000000
    2      -51.521273    -46.789184   1.000000   1.000000
    3      -51.412274    -46.656951   1.000000   1.000000
    4      -51.411292    -46.655285   1.000000   1.000000
    5      -50.197923    -46.440339   1.000000   1.000000
    6      -50.197617    -46.439914   1.000000   1.000000
    7      -50.051047    -46.394481   1.000000   1.000000
    8      -50.050972    -46.394368   1.000000   1.000000
    9      -49.999249    -46.279601   1.000000   1.000000
   10      -49.999111    -46.279398   1.000000   1.000000
   11      -49.974148    -46.264169   1.000000   1.000000
   12      -49.973601    -46.263410   1.000000   1.000000
   13      -40.366492    -40.364295   1.000000   1.000000
   14      -40.364867    -40.362658   1.000000   1.000000
   15      -40.278471    -40.277896   1.000000   1.000000
   16      -40.276362    -40.275763   1.000000   1.000000
   17      -40.172589    -40.174027   1.000000   1.000000
   18      -40.172070    -40.173501   1.000000   1.000000
   19      -40.170367    -40.171807   1.000000   1.000000
   20      -40.170295    -40.171735   1.000000   1.000000
   21      -13.453980    -13.143112   1.000000   1.000000
   22      -13.400454    -13.089924   1.000000   1.000000
   23      -13.240156    -13.004592   1.000000   1.000000
   24      -13.159628    -12.936534   1.000000   1.000000
   25       -7.467774     -7.297003   1.000000   1.000000
   26       -7.453574     -7.282380   1.000000   1.000000
   27       -7.126776     -6.949868   1.000000   1.000000