 120 120   0   0
  0.1228332E+02  0.1173587E-08  0.1121847E-08  0.1119562E-08  0.5000000E-15
  1.000000000000000E-004
  CAR 
 unknown system                          
     16.73843906    -54.73214769  301      4.40976284      1.00000000
    -54.732  0.0000E+00  0.0000E+00  0.0000E+00  0.0000E+00
    -54.494  0.0000E+00  0.0000E+00  0.0000E+00  0.0000E+00
    -54.256  0.0000E+00  0.0000E+00  0.0000E+00  0.0000E+00
    -54.017  0.0000E+00  0.0000E+00  0.0000E+00  0.0000E+00
    -53.779  0.0000E+00  0.0000E+00  0.0000E+00  0.0000E+00
    -53.541  0.0000E+00  0.0000E+00  0.0000E+00  0.0000E+00
    -53.303  0.0000E+00  0.0000E+00  0.0000E+00  0.0000E+00
    -53.065  0.0000E+00  0.0000E+00  0.0000E+00  0.0000E+00
    -52.826  0.0000E+00  0.0000E+00  0.0000E+00  0.0000E+00
    -52.588  0.0000E+00  0.0000E+00  0.0000E+00  0.0000E+00
    -52.350  0.0000E+00  0.0000E+00  0.0000E+00  0.0000E+00
    -52.112  0.0000E+00  0.0000E+00  0.0000E+00  0.0000E+00
    -51.873  0.0000E+00  0.0000E+00  0.0000E+00  0.0000E+00
    -51.635  0.2280E-03  0.0000E+00  0.5433E-04  0.0000E+00
    -51.397  0.9770E+02  0.0000E+00  0.2327E+02  0.0000E+00
    -51.159  0.3043E+01  0.0000E+00  0.2400E+02  0.0000E+00
    -50.920  0.0000E+00  0.0000E+00  0.2400E+02  0.0000E+00
    -50.682  0.0000E+00  0.0000E+00  0.2400E+02  0.0000E+00
    -50.444  0.2169E-09  0.0000E+00  0.2400E+02  0.0000E+00
    -50.206  0.4238E+02  0.0000E+00  0.3410E+02  0.0000E+00
    -49.967  0.1321E+03  0.0000E+00  0.6556E+02  0.0000E+00
    -49.729  0.2702E+02  0.0000E+00  0.7200E+02  0.0000E+00
    -49.491  0.0000E+00  0.0000E+00  0.7200E+02  0.0000E+00
    -49.253  0.0000E+00  0.0000E+00  0.7200E+02  0.0000E+00
    -49.015  0.0000E+00  0.0000E+00  0.7200E+02  0.0000E+00
    -48.776  0.0000E+00  0.0000E+00  0.7200E+02  0.0000E+00
    -48.538  0.0000E+00  0.0000E+00  0.7200E+02  0.0000E+00
    -48.300  0.0000E+00  0.0000E+00  0.7200E+02  0.0000E+00
    -48.062  0.0000E+00  0.0000E+00  0.7200E+02  0.0000E+00
    -47.823  0.0000E+00  0.0000E+00  0.7200E+02  0.0000E+00
    -47.585  0.0000E+00  0.0000E+00  0.7200E+02  0.0000E+00
    -47.347  0.0000E+00  0.0000E+00  0.7200E+02  0.0000E+00
    -47.109  0.0000E+00  0.0000E+00  0.7200E+02  0.0000E+00
    -46.870  0.0000E+00  0.6063E-01  0.7200E+02  0.1444E-01
    -46.632  0.0000E+00  0.1006E+03  0.7200E+02  0.2397E+02
    -46.394  0.0000E+00  0.9536E+02  0.7200E+02  0.4669E+02
    -46.156  0.0000E+00  0.1062E+03  0.7200E+02  0.7200E+02
    -45.917  0.0000E+00  0.0000E+00  0.7200E+02  0.7200E+02
    -45.679  0.0000E+00  0.0000E+00  0.7200E+02  0.7200E+02
    -45.441  0.0000E+00  0.0000E+00  0.7200E+02  0.7200E+02
    -45.203  0.0000E+00  0.0000E+00  0.7200E+02  0.7200E+02
    -44.965  0.0000E+00  0.0000E+00  0.7200E+02  0.7200E+02
    -44.726  0.0000E+00  0.0000E+00  0.7200E+02  0.7200E+02
    -44.488  0.0000E+00  0.0000E+00  0.7200E+02  0.7200E+02
    -44.250  0.0000E+00  0.0000E+00  0.7200E+02  0.7200E+02
    -44.012  0.0000E+00  0.0000E+00  0.7200E+02  0.7200E+02
    -43.773  0.0000E+00  0.0000E+00  0.7200E+02  0.7200E+02
    -43.535  0.0000E+00  0.0000E+00  0.7200E+02  0.7200E+02
    -43.297  0.0000E+00  0.0000E+00  0.7200E+02  0.7200E+02
    -43.059  0.0000E+00  0.0000E+00  0.7200E+02  0.7200E+02
    -42.820  0.0000E+00  0.0000E+00  0.7200E+02  0.7200E+02
    -42.582  0.0000E+00  0.0000E+00  0.7200E+02  0.7200E+02
    -42.344  0.0000E+00  0.0000E+00  0.7200E+02  0.7200E+02
    -42.106  0.0000E+00  0.0000E+00  0.7200E+02  0.7200E+02
    -41.867  0.0000E+00  0.0000E+00  0.7200E+02  0.7200E+02
    -41.629  0.0000E+00  0.0000E+00  0.7200E+02  0.7200E+02
    -41.391  0.0000E+00  0.0000E+00  0.7200E+02  0.7200E+02
    -41.153  0.0000E+00  0.0000E+00  0.7200E+02  0.7200E+02
    -40.915  0.0000E+00  0.0000E+00  0.7200E+02  0.7200E+02
    -40.676  0.2879E-03  0.8837E-04  0.7200E+02  0.7200E+02
    -40.438  0.9897E+02  0.9759E+02  0.9558E+02  0.9525E+02
    -40.200  0.1024E+03  0.1037E+03  0.1200E+03  0.1200E+03
    -39.962  0.1482E+00  0.1514E+00  0.1200E+03  0.1200E+03
    -39.723  0.0000E+00  0.0000E+00  0.1200E+03  0.1200E+03
    -39.485  0.0000E+00  0.0000E+00  0.1200E+03  0.1200E+03
    -39.247  0.0000E+00  0.0000E+00  0.1200E+03  0.1200E+03
    -39.009  0.0000E+00  0.0000E+00  0.1200E+03  0.1200E+03
    -38.770  0.0000E+00  0.0000E+00  0.1200E+03  0.1200E+03
    -38.532  0.0000E+00  0.0000E+00  0.1200E+03  0.1200E+03
    -38.294  0.0000E+00  0.0000E+00  0.1200E+03  0.1200E+03
    -38.056  0.0000E+00  0.0000E+00  0.1200E+03  0.1200E+03
    -37.817  0.0000E+00  0.0000E+00  0.1200E+03  0.1200E+03
    -37.579  0.0000E+00  0.0000E+00  0.1200E+03  0.1200E+03
    -37.341  0.0000E+00  0.0000E+00  0.1200E+03  0.1200E+03
    -37.103  0.0000E+00  0.0000E+00  0.1200E+03  0.1200E+03
    -36.865  0.0000E+00  0.0000E+00  0.1200E+03  0.1200E+03
    -36.626  0.0000E+00  0.0000E+00  0.1200E+03  0.1200E+03
    -36.388  0.0000E+00  0.0000E+00  0.1200E+03  0.1200E+03
    -36.150  0.0000E+00  0.0000E+00  0.1200E+03  0.1200E+03
    -35.912  0.0000E+00  0.0000E+00  0.1200E+03  0.1200E+03
    -35.673  0.0000E+00  0.0000E+00  0.1200E+03  0.1200E+03
    -35.435  0.0000E+00  0.0000E+00  0.1200E+03  0.1200E+03
    -35.197  0.0000E+00  0.0000E+00  0.1200E+03  0.1200E+03
    -34.959  0.0000E+00  0.0000E+00  0.1200E+03  0.1200E+03
    -34.720  0.0000E+00  0.0000E+00  0.1200E+03  0.1200E+03
    -34.482  0.0000E+00  0.0000E+00  0.1200E+03  0.1200E+03
    -34.244  0.0000E+00  0.0000E+00  0.1200E+03  0.1200E+03
    -34.006  0.0000E+00  0.0000E+00  0.1200E+03  0.1200E+03
    -33.767  0.0000E+00  0.0000E+00  0.1200E+03  0.1200E+03
    -33.529  0.0000E+00  0.0000E+00  0.1200E+03  0.1200E+03
    -33.291  0.0000E+00  0.0000E+00  0.1200E+03  0.1200E+03
    -33.053  0.0000E+00  0.0000E+00  0.1200E+03  0.1200E+03
    -32.815  0.0000E+00  0.0000E+00  0.1200E+03  0.1200E+03
    -32.576  0.0000E+00  0.0000E+00  0.1200E+03  0.1200E+03
    -32.338  0.0000E+00  0.0000E+00  0.1200E+03  0.1200E+03
    -32.100  0.0000E+00  0.0000E+00  0.1200E+03  0.1200E+03
    -31.862  0.0000E+00  0.0000E+00  0.1200E+03  0.1200E+03
    -31.623  0.0000E+00  0.0000E+00  0.1200E+03  0.1200E+03
    -31.385  0.0000E+00  0.0000E+00  0.1200E+03  0.1200E+03
    -31.147  0.0000E+00  0.0000E+00  0.1200E+03  0.1200E+03
    -30.909  0.0000E+00  0.0000E+00  0.1200E+03  0.1200E+03
    -30.670  0.0000E+00  0.0000E+00  0.1200E+03  0.1200E+03
    -30.432  0.0000E+00  0.0000E+00  0.1200E+03  0.1200E+03
    -30.194  0.0000E+00  0.0000E+00  0.1200E+03  0.1200E+03
    -29.956  0.0000E+00  0.0000E+00  0.1200E+03  0.1200E+03
    -29.717  0.0000E+00  0.0000E+00  0.1200E+03  0.1200E+03
    -29.479  0.0000E+00  0.0000E+00  0.1200E+03  0.1200E+03
    -29.241  0.0000E+00  0.0000E+00  0.1200E+03  0.1200E+03
    -29.003  0.0000E+00  0.0000E+00  0.1200E+03  0.1200E+03
    -28.765  0.0000E+00  0.0000E+00  0.1200E+03  0.1200E+03
    -28.526  0.0000E+00  0.0000E+00  0.1200E+03  0.1200E+03
    -28.288  0.0000E+00  0.0000E+00  0.1200E+03  0.1200E+03
    -28.050  0.0000E+00  0.0000E+00  0.1200E+03  0.1200E+03
    -27.812  0.0000E+00  0.0000E+00  0.1200E+03  0.1200E+03
    -27.573  0.0000E+00  0.0000E+00  0.1200E+03  0.1200E+03
    -27.335  0.0000E+00  0.0000E+00  0.1200E+03  0.1200E+03
    -27.097  0.0000E+00  0.0000E+00  0.1200E+03  0.1200E+03
    -26.859  0.0000E+00  0.0000E+00  0.1200E+03  0.1200E+03
    -26.620  0.0000E+00  0.0000E+00  0.1200E+03  0.1200E+03
    -26.382  0.0000E+00  0.0000E+00  0.1200E+03  0.1200E+03
    -26.144  0.0000E+00  0.0000E+00  0.1200E+03  0.1200E+03
    -25.906  0.0000E+00  0.0000E+00  0.1200E+03  0.1200E+03
    -25.667  0.0000E+00  0.0000E+00  0.1200E+03  0.1200E+03
    -25.429  0.0000E+00  0.0000E+00  0.1200E+03  0.1200E+03
    -25.191  0.0000E+00  0.0000E+00  0.1200E+03  0.1200E+03
    -24.953  0.0000E+00  0.0000E+00  0.1200E+03  0.1200E+03
    -24.715  0.0000E+00  0.0000E+00  0.1200E+03  0.1200E+03
    -24.476  0.0000E+00  0.0000E+00  0.1200E+03  0.1200E+03
    -24.238  0.0000E+00  0.0000E+00  0.1200E+03  0.1200E+03
    -24.000  0.0000E+00  0.0000E+00  0.1200E+03  0.1200E+03
    -23.762  0.0000E+00  0.0000E+00  0.1200E+03  0.1200E+03
    -23.523  0.0000E+00  0.0000E+00  0.1200E+03  0.1200E+03
    -23.285  0.0000E+00  0.0000E+00  0.1200E+03  0.1200E+03
    -23.047  0.0000E+00  0.0000E+00  0.1200E+03  0.1200E+03
    -22.809  0.0000E+00  0.0000E+00  0.1200E+03  0.1200E+03
    -22.570  0.0000E+00  0.0000E+00  0.1200E+03  0.1200E+03
    -22.332  0.0000E+00  0.0000E+00  0.1200E+03  0.1200E+03
    -22.094  0.0000E+00  0.0000E+00  0.1200E+03  0.1200E+03
    -21.856  0.0000E+00  0.0000E+00  0.1200E+03  0.1200E+03
    -21.617  0.0000E+00  0.0000E+00  0.1200E+03  0.1200E+03
    -21.379  0.0000E+00  0.0000E+00  0.1200E+03  0.1200E+03
    -21.141  0.0000E+00  0.0000E+00  0.1200E+03  0.1200E+03
    -20.903  0.0000E+00  0.0000E+00  0.1200E+03  0.1200E+03
    -20.665  0.0000E+00  0.0000E+00  0.1200E+03  0.1200E+03
    -20.426  0.0000E+00  0.0000E+00  0.1200E+03  0.1200E+03
    -20.188  0.0000E+00  0.0000E+00  0.1200E+03  0.1200E+03
    -19.950  0.0000E+00  0.0000E+00  0.1200E+03  0.1200E+03
    -19.712  0.0000E+00  0.0000E+00  0.1200E+03  0.1200E+03
    -19.473  0.0000E+00  0.0000E+00  0.1200E+03  0.1200E+03
    -19.235  0.0000E+00  0.0000E+00  0.1200E+03  0.1200E+03
    -18.997  0.0000E+00  0.0000E+00  0.1200E+03  0.1200E+03
    -18.759  0.0000E+00  0.0000E+00  0.1200E+03  0.1200E+03
    -18.520  0.0000E+00  0.0000E+00  0.1200E+03  0.1200E+03
    -18.282  0.0000E+00  0.0000E+00  0.1200E+03  0.1200E+03
    -18.044  0.0000E+00  0.0000E+00  0.1200E+03  0.1200E+03
    -17.806  0.0000E+00  0.0000E+00  0.1200E+03  0.1200E+03
    -17.567  0.0000E+00  0.0000E+00  0.1200E+03  0.1200E+03
    -17.329  0.0000E+00  0.0000E+00  0.1200E+03  0.1200E+03
    -17.091  0.0000E+00  0.0000E+00  0.1200E+03  0.1200E+03
    -16.853  0.0000E+00  0.0000E+00  0.1200E+03  0.1200E+03
    -16.615  0.0000E+00  0.0000E+00  0.1200E+03  0.1200E+03
    -16.376  0.0000E+00  0.0000E+00  0.1200E+03  0.1200E+03
    -16.138  0.0000E+00  0.0000E+00  0.1200E+03  0.1200E+03
    -15.900  0.0000E+00  0.0000E+00  0.1200E+03  0.1200E+03
    -15.662  0.0000E+00  0.0000E+00  0.1200E+03  0.1200E+03
    -15.423  0.0000E+00  0.0000E+00  0.1200E+03  0.1200E+03
    -15.185  0.0000E+00  0.0000E+00  0.1200E+03  0.1200E+03
    -14.947  0.0000E+00  0.0000E+00  0.1200E+03  0.1200E+03
    -14.709  0.0000E+00  0.0000E+00  0.1200E+03  0.1200E+03
    -14.470  0.0000E+00  0.0000E+00  0.1200E+03  0.1200E+03
    -14.232  0.0000E+00  0.0000E+00  0.1200E+03  0.1200E+03
    -13.994  0.0000E+00  0.0000E+00  0.1200E+03  0.1200E+03
    -13.756  0.2483E-08  0.0000E+00  0.1200E+03  0.1200E+03
    -13.517  0.9792E+01  0.5437E-15  0.1223E+03  0.1200E+03
    -13.279  0.6005E+02  0.4117E+00  0.1366E+03  0.1201E+03
    -13.041  0.3090E+02  0.6843E+02  0.1440E+03  0.1364E+03
    -12.803  0.1741E-03  0.3190E+02  0.1440E+03  0.1440E+03
    -12.565  0.0000E+00  0.1775E-04  0.1440E+03  0.1440E+03
    -12.326  0.0000E+00  0.0000E+00  0.1440E+03  0.1440E+03
    -12.088  0.0000E+00  0.0000E+00  0.1440E+03  0.1440E+03
    -11.850  0.0000E+00  0.0000E+00  0.1440E+03  0.1440E+03
    -11.612  0.0000E+00  0.0000E+00  0.1440E+03  0.1440E+03
    -11.373  0.0000E+00  0.0000E+00  0.1440E+03  0.1440E+03
    -11.135  0.0000E+00  0.0000E+00  0.1440E+03  0.1440E+03
    -10.897  0.0000E+00  0.0000E+00  0.1440E+03  0.1440E+03
    -10.659  0.0000E+00  0.0000E+00  0.1440E+03  0.1440E+03
    -10.420  0.0000E+00  0.0000E+00  0.1440E+03  0.1440E+03
    -10.182  0.0000E+00  0.0000E+00  0.1440E+03  0.1440E+03
     -9.944  0.0000E+00  0.0000E+00  0.1440E+03  0.1440E+03
     -9.706  0.0000E+00  0.0000E+00  0.1440E+03  0.1440E+03
     -9.467  0.0000E+00  0.0000E+00  0.1440E+03  0.1440E+03
     -9.229  0.0000E+00  0.0000E+00  0.1440E+03  0.1440E+03
     -8.991  0.0000E+00  0.0000E+00  0.1440E+03  0.1440E+03
     -8.753  0.0000E+00  0.0000E+00  0.1440E+03  0.1440E+03
     -8.515  0.0000E+00  0.0000E+00  0.1440E+03  0.1440E+03
     -8.276  0.0000E+00  0.0000E+00  0.1440E+03  0.1440E+03
     -8.038  0.0000E+00  0.0000E+00  0.1440E+03  0.1440E+03
     -7.800  0.1647E-01  0.6559E-15  0.1440E+03  0.1440E+03
     -7.562  0.1903E+02  0.1723E+00  0.1485E+03  0.1440E+03
     -7.323  0.4853E+02  0.2972E+02  0.1601E+03  0.1511E+03
     -7.085  0.3243E+02  0.4932E+02  0.1678E+03  0.1629E+03
     -6.847  0.7382E+00  0.2096E+02  0.1680E+03  0.1679E+03
     -6.609  0.0000E+00  0.5677E+00  0.1680E+03  0.1680E+03
     -6.370  0.0000E+00  0.0000E+00  0.1680E+03  0.1680E+03
     -6.132  0.0000E+00  0.0000E+00  0.1680E+03  0.1680E+03
     -5.894  0.0000E+00  0.0000E+00  0.1680E+03  0.1680E+03
     -5.656  0.0000E+00  0.0000E+00  0.1680E+03  0.1680E+03
     -5.417  0.0000E+00  0.0000E+00  0.1680E+03  0.1680E+03
     -5.179  0.0000E+00  0.0000E+00  0.1680E+03  0.1680E+03
     -4.941  0.0000E+00  0.0000E+00  0.1680E+03  0.1680E+03
     -4.703  0.0000E+00  0.0000E+00  0.1680E+03  0.1680E+03
     -4.465  0.0000E+00  0.0000E+00  0.1680E+03  0.1680E+03
     -4.226  0.0000E+00  0.0000E+00  0.1680E+03  0.1680E+03
     -3.988  0.0000E+00  0.0000E+00  0.1680E+03  0.1680E+03
     -3.750  0.0000E+00  0.0000E+00  0.1680E+03  0.1680E+03
     -3.512  0.0000E+00  0.0000E+00  0.1680E+03  0.1680E+03
     -3.273  0.0000E+00  0.0000E+00  0.1680E+03  0.1680E+03
     -3.035  0.0000E+00  0.0000E+00  0.1680E+03  0.1680E+03
     -2.797  0.0000E+00  0.0000E+00  0.1680E+03  0.1680E+03
     -2.559  0.0000E+00  0.0000E+00  0.1680E+03  0.1680E+03
     -2.320  0.0000E+00  0.0000E+00  0.1680E+03  0.1680E+03
     -2.082  0.4530E-05  0.0000E+00  0.1680E+03  0.1680E+03
     -1.844  0.8838E+01  0.0000E+00  0.1701E+03  0.1680E+03
     -1.606  0.5897E+02  0.0000E+00  0.1842E+03  0.1680E+03
     -1.367  0.4043E+02  0.0000E+00  0.1938E+03  0.1680E+03
     -1.129  0.3279E+02  0.0000E+00  0.2016E+03  0.1680E+03
     -0.891  0.5451E+02  0.5596E-08  0.2146E+03  0.1680E+03
     -0.653  0.5312E+02  0.2004E+01  0.2272E+03  0.1685E+03
     -0.415  0.6735E+02  0.1769E+02  0.2433E+03  0.1727E+03
     -0.176  0.5366E+02  0.3887E+02  0.2561E+03  0.1820E+03
      0.062  0.3460E+02  0.3463E+02  0.2643E+03  0.1902E+03
      0.300  0.5535E+02  0.2349E+02  0.2775E+03  0.1958E+03
      0.538  0.4736E+02  0.4869E+02  0.2888E+03  0.2074E+03
      0.777  0.3242E+02  0.4877E+02  0.2965E+03  0.2190E+03
      1.015  0.5002E+02  0.6850E+02  0.3084E+03  0.2353E+03
      1.253  0.4953E+02  0.2512E+02  0.3202E+03  0.2413E+03
      1.491  0.5412E+02  0.2339E+02  0.3331E+03  0.2469E+03
      1.730  0.6182E+02  0.3846E+02  0.3478E+03  0.2561E+03
      1.968  0.3360E+02  0.4589E+02  0.3558E+03  0.2670E+03
      2.206  0.2383E+02  0.2922E+02  0.3615E+03  0.2740E+03
      2.444  0.1398E+02  0.3570E+02  0.3649E+03  0.2825E+03
      2.683  0.3759E+02  0.2546E+02  0.3738E+03  0.2885E+03
      2.921  0.3873E+02  0.4570E+02  0.3830E+03  0.2994E+03
      3.159  0.3055E+02  0.4172E+02  0.3903E+03  0.3093E+03
      3.397  0.4397E+02  0.1406E+02  0.4008E+03  0.3127E+03
      3.635  0.5368E+02  0.3151E+02  0.4136E+03  0.3202E+03
      3.874  0.4689E+02  0.5662E+02  0.4247E+03  0.3337E+03
      4.112  0.2865E+02  0.9686E+01  0.4316E+03  0.3360E+03
      4.350  0.1785E+01  0.3138E-05  0.4320E+03  0.3360E+03
      4.588  0.0000E+00  0.0000E+00  0.4320E+03  0.3360E+03
      4.827  0.0000E+00  0.0000E+00  0.4320E+03  0.3360E+03
      5.065  0.0000E+00  0.0000E+00  0.4320E+03  0.3360E+03
      5.303  0.0000E+00  0.0000E+00  0.4320E+03  0.3360E+03
      5.541  0.0000E+00  0.0000E+00  0.4320E+03  0.3360E+03
      5.780  0.0000E+00  0.0000E+00  0.4320E+03  0.3360E+03
      6.018  0.0000E+00  0.5701E-02  0.4320E+03  0.3360E+03
      6.256  0.0000E+00  0.1988E+01  0.4320E+03  0.3365E+03
      6.494  0.0000E+00  0.1382E+02  0.4320E+03  0.3398E+03
      6.733  0.0000E+00  0.2699E+02  0.4320E+03  0.3462E+03
      6.971  0.0000E+00  0.2540E+02  0.4320E+03  0.3522E+03
      7.209  0.1609E-04  0.5851E+02  0.4320E+03  0.3662E+03
      7.447  0.1553E+00  0.7487E+02  0.4320E+03  0.3840E+03
      7.685  0.7674E+00  0.2925E+02  0.4322E+03  0.3910E+03
      7.924  0.1552E+01  0.4143E+02  0.4326E+03  0.4009E+03
      8.162  0.4829E+01  0.7865E+02  0.4337E+03  0.4196E+03
      8.400  0.7256E+01  0.4894E+02  0.4355E+03  0.4313E+03
      8.638  0.1572E+02  0.3535E+01  0.4392E+03  0.4321E+03
      8.877  0.2403E+02  0.1200E+01  0.4449E+03  0.4324E+03
      9.115  0.1986E+02  0.4522E+01  0.4497E+03  0.4335E+03
      9.353  0.1938E+02  0.1092E+02  0.4543E+03  0.4361E+03
      9.591  0.1979E+02  0.2127E+02  0.4590E+03  0.4411E+03
      9.830  0.2447E+02  0.2888E+02  0.4648E+03  0.4480E+03
     10.068  0.2195E+02  0.3014E+02  0.4701E+03  0.4552E+03
     10.306  0.1797E+02  0.2998E+02  0.4743E+03  0.4623E+03
     10.544  0.2478E+02  0.2576E+02  0.4802E+03  0.4685E+03
     10.783  0.1479E+02  0.2583E+02  0.4838E+03  0.4746E+03
     11.021  0.2784E+02  0.2409E+02  0.4904E+03  0.4804E+03
     11.259  0.4557E+02  0.1044E+02  0.5013E+03  0.4829E+03
     11.497  0.4857E+02  0.2596E+02  0.5128E+03  0.4890E+03
     11.735  0.3496E+02  0.3088E+02  0.5212E+03  0.4964E+03
     11.974  0.2037E+02  0.5631E+02  0.5260E+03  0.5098E+03
     12.212  0.2075E+02  0.4432E+02  0.5310E+03  0.5204E+03
     12.450  0.3041E+02  0.2669E+02  0.5382E+03  0.5267E+03
     12.688  0.3205E+02  0.2382E+02  0.5458E+03  0.5324E+03
     12.927  0.1819E+02  0.2740E+02  0.5502E+03  0.5389E+03
     13.165  0.7584E+01  0.3286E+02  0.5520E+03  0.5468E+03
     13.403  0.1025E+00  0.1786E+02  0.5520E+03  0.5510E+03
     13.641  0.0000E+00  0.4149E+01  0.5520E+03  0.5520E+03
     13.880  0.0000E+00  0.5600E-05  0.5520E+03  0.5520E+03
     14.118  0.0000E+00  0.0000E+00  0.5520E+03  0.5520E+03
     14.356  0.0000E+00  0.0000E+00  0.5520E+03  0.5520E+03
     14.594  0.0000E+00  0.0000E+00  0.5520E+03  0.5520E+03
     14.833  0.0000E+00  0.0000E+00  0.5520E+03  0.5520E+03
     15.071  0.0000E+00  0.0000E+00  0.5520E+03  0.5520E+03
     15.309  0.0000E+00  0.0000E+00  0.5520E+03  0.5520E+03
     15.547  0.0000E+00  0.0000E+00  0.5520E+03  0.5520E+03
     15.785  0.0000E+00  0.0000E+00  0.5520E+03  0.5520E+03
     16.024  0.0000E+00  0.0000E+00  0.5520E+03  0.5520E+03
     16.262  0.0000E+00  0.0000E+00  0.5520E+03  0.5520E+03
     16.500  0.0000E+00  0.0000E+00  0.5520E+03  0.5520E+03
     16.738  0.0000E+00  0.0000E+00  0.5520E+03  0.5520E+03
