 120 120   0   0
  0.1228332E+02  0.1173587E-08  0.1121847E-08  0.1119562E-08  0.5000000E-15
  1.000000000000000E-004
  CAR 
 unknown system                          
     16.72791911    -54.73131234  301      4.40120169      1.00000000
    -54.731  0.0000E+00  0.0000E+00  0.0000E+00  0.0000E+00
    -54.493  0.0000E+00  0.0000E+00  0.0000E+00  0.0000E+00
    -54.255  0.0000E+00  0.0000E+00  0.0000E+00  0.0000E+00
    -54.017  0.0000E+00  0.0000E+00  0.0000E+00  0.0000E+00
    -53.779  0.0000E+00  0.0000E+00  0.0000E+00  0.0000E+00
    -53.540  0.0000E+00  0.0000E+00  0.0000E+00  0.0000E+00
    -53.302  0.0000E+00  0.0000E+00  0.0000E+00  0.0000E+00
    -53.064  0.0000E+00  0.0000E+00  0.0000E+00  0.0000E+00
    -52.826  0.0000E+00  0.0000E+00  0.0000E+00  0.0000E+00
    -52.588  0.0000E+00  0.0000E+00  0.0000E+00  0.0000E+00
    -52.349  0.0000E+00  0.0000E+00  0.0000E+00  0.0000E+00
    -52.111  0.0000E+00  0.0000E+00  0.0000E+00  0.0000E+00
    -51.873  0.0000E+00  0.0000E+00  0.0000E+00  0.0000E+00
    -51.635  0.2375E-03  0.0000E+00  0.5658E-04  0.0000E+00
    -51.397  0.9777E+02  0.0000E+00  0.2329E+02  0.0000E+00
    -51.158  0.2990E+01  0.0000E+00  0.2400E+02  0.0000E+00
    -50.920  0.0000E+00  0.0000E+00  0.2400E+02  0.0000E+00
    -50.682  0.0000E+00  0.0000E+00  0.2400E+02  0.0000E+00
    -50.444  0.2224E-09  0.0000E+00  0.2400E+02  0.0000E+00
    -50.206  0.4250E+02  0.0000E+00  0.3412E+02  0.0000E+00
    -49.967  0.1320E+03  0.0000E+00  0.6558E+02  0.0000E+00
    -49.729  0.2697E+02  0.0000E+00  0.7200E+02  0.0000E+00
    -49.491  0.0000E+00  0.0000E+00  0.7200E+02  0.0000E+00
    -49.253  0.0000E+00  0.0000E+00  0.7200E+02  0.0000E+00
    -49.015  0.0000E+00  0.0000E+00  0.7200E+02  0.0000E+00
    -48.776  0.0000E+00  0.0000E+00  0.7200E+02  0.0000E+00
    -48.538  0.0000E+00  0.0000E+00  0.7200E+02  0.0000E+00
    -48.300  0.0000E+00  0.0000E+00  0.7200E+02  0.0000E+00
    -48.062  0.0000E+00  0.0000E+00  0.7200E+02  0.0000E+00
    -47.824  0.0000E+00  0.0000E+00  0.7200E+02  0.0000E+00
    -47.585  0.0000E+00  0.0000E+00  0.7200E+02  0.0000E+00
    -47.347  0.0000E+00  0.0000E+00  0.7200E+02  0.0000E+00
    -47.109  0.0000E+00  0.0000E+00  0.7200E+02  0.0000E+00
    -46.871  0.0000E+00  0.5815E-01  0.7200E+02  0.1385E-01
    -46.633  0.0000E+00  0.1006E+03  0.7200E+02  0.2397E+02
    -46.394  0.0000E+00  0.9469E+02  0.7200E+02  0.4653E+02
    -46.156  0.0000E+00  0.1069E+03  0.7200E+02  0.7200E+02
    -45.918  0.0000E+00  0.0000E+00  0.7200E+02  0.7200E+02
    -45.680  0.0000E+00  0.0000E+00  0.7200E+02  0.7200E+02
    -45.442  0.0000E+00  0.0000E+00  0.7200E+02  0.7200E+02
    -45.203  0.0000E+00  0.0000E+00  0.7200E+02  0.7200E+02
    -44.965  0.0000E+00  0.0000E+00  0.7200E+02  0.7200E+02
    -44.727  0.0000E+00  0.0000E+00  0.7200E+02  0.7200E+02
    -44.489  0.0000E+00  0.0000E+00  0.7200E+02  0.7200E+02
    -44.251  0.0000E+00  0.0000E+00  0.7200E+02  0.7200E+02
    -44.012  0.0000E+00  0.0000E+00  0.7200E+02  0.7200E+02
    -43.774  0.0000E+00  0.0000E+00  0.7200E+02  0.7200E+02
    -43.536  0.0000E+00  0.0000E+00  0.7200E+02  0.7200E+02
    -43.298  0.0000E+00  0.0000E+00  0.7200E+02  0.7200E+02
    -43.060  0.0000E+00  0.0000E+00  0.7200E+02  0.7200E+02
    -42.821  0.0000E+00  0.0000E+00  0.7200E+02  0.7200E+02
    -42.583  0.0000E+00  0.0000E+00  0.7200E+02  0.7200E+02
    -42.345  0.0000E+00  0.0000E+00  0.7200E+02  0.7200E+02
    -42.107  0.0000E+00  0.0000E+00  0.7200E+02  0.7200E+02
    -41.869  0.0000E+00  0.0000E+00  0.7200E+02  0.7200E+02
    -41.630  0.0000E+00  0.0000E+00  0.7200E+02  0.7200E+02
    -41.392  0.0000E+00  0.0000E+00  0.7200E+02  0.7200E+02
    -41.154  0.0000E+00  0.0000E+00  0.7200E+02  0.7200E+02
    -40.916  0.0000E+00  0.0000E+00  0.7200E+02  0.7200E+02
    -40.678  0.2262E-03  0.6900E-04  0.7200E+02  0.7200E+02
    -40.439  0.9875E+02  0.9724E+02  0.9552E+02  0.9516E+02
    -40.201  0.1026E+03  0.1041E+03  0.1200E+03  0.1200E+03
    -39.963  0.1919E+00  0.1960E+00  0.1200E+03  0.1200E+03
    -39.725  0.0000E+00  0.0000E+00  0.1200E+03  0.1200E+03
    -39.487  0.0000E+00  0.0000E+00  0.1200E+03  0.1200E+03
    -39.248  0.0000E+00  0.0000E+00  0.1200E+03  0.1200E+03
    -39.010  0.0000E+00  0.0000E+00  0.1200E+03  0.1200E+03
    -38.772  0.0000E+00  0.0000E+00  0.1200E+03  0.1200E+03
    -38.534  0.0000E+00  0.0000E+00  0.1200E+03  0.1200E+03
    -38.296  0.0000E+00  0.0000E+00  0.1200E+03  0.1200E+03
    -38.057  0.0000E+00  0.0000E+00  0.1200E+03  0.1200E+03
    -37.819  0.0000E+00  0.0000E+00  0.1200E+03  0.1200E+03
    -37.581  0.0000E+00  0.0000E+00  0.1200E+03  0.1200E+03
    -37.343  0.0000E+00  0.0000E+00  0.1200E+03  0.1200E+03
    -37.105  0.0000E+00  0.0000E+00  0.1200E+03  0.1200E+03
    -36.867  0.0000E+00  0.0000E+00  0.1200E+03  0.1200E+03
    -36.628  0.0000E+00  0.0000E+00  0.1200E+03  0.1200E+03
    -36.390  0.0000E+00  0.0000E+00  0.1200E+03  0.1200E+03
    -36.152  0.0000E+00  0.0000E+00  0.1200E+03  0.1200E+03
    -35.914  0.0000E+00  0.0000E+00  0.1200E+03  0.1200E+03
    -35.676  0.0000E+00  0.0000E+00  0.1200E+03  0.1200E+03
    -35.437  0.0000E+00  0.0000E+00  0.1200E+03  0.1200E+03
    -35.199  0.0000E+00  0.0000E+00  0.1200E+03  0.1200E+03
    -34.961  0.0000E+00  0.0000E+00  0.1200E+03  0.1200E+03
    -34.723  0.0000E+00  0.0000E+00  0.1200E+03  0.1200E+03
    -34.485  0.0000E+00  0.0000E+00  0.1200E+03  0.1200E+03
    -34.246  0.0000E+00  0.0000E+00  0.1200E+03  0.1200E+03
    -34.008  0.0000E+00  0.0000E+00  0.1200E+03  0.1200E+03
    -33.770  0.0000E+00  0.0000E+00  0.1200E+03  0.1200E+03
    -33.532  0.0000E+00  0.0000E+00  0.1200E+03  0.1200E+03
    -33.294  0.0000E+00  0.0000E+00  0.1200E+03  0.1200E+03
    -33.055  0.0000E+00  0.0000E+00  0.1200E+03  0.1200E+03
    -32.817  0.0000E+00  0.0000E+00  0.1200E+03  0.1200E+03
    -32.579  0.0000E+00  0.0000E+00  0.1200E+03  0.1200E+03
    -32.341  0.0000E+00  0.0000E+00  0.1200E+03  0.1200E+03
    -32.103  0.0000E+00  0.0000E+00  0.1200E+03  0.1200E+03
    -31.864  0.0000E+00  0.0000E+00  0.1200E+03  0.1200E+03
    -31.626  0.0000E+00  0.0000E+00  0.1200E+03  0.1200E+03
    -31.388  0.0000E+00  0.0000E+00  0.1200E+03  0.1200E+03
    -31.150  0.0000E+00  0.0000E+00  0.1200E+03  0.1200E+03
    -30.912  0.0000E+00  0.0000E+00  0.1200E+03  0.1200E+03
    -30.673  0.0000E+00  0.0000E+00  0.1200E+03  0.1200E+03
    -30.435  0.0000E+00  0.0000E+00  0.1200E+03  0.1200E+03
    -30.197  0.0000E+00  0.0000E+00  0.1200E+03  0.1200E+03
    -29.959  0.0000E+00  0.0000E+00  0.1200E+03  0.1200E+03
    -29.721  0.0000E+00  0.0000E+00  0.1200E+03  0.1200E+03
    -29.482  0.0000E+00  0.0000E+00  0.1200E+03  0.1200E+03
    -29.244  0.0000E+00  0.0000E+00  0.1200E+03  0.1200E+03
    -29.006  0.0000E+00  0.0000E+00  0.1200E+03  0.1200E+03
    -28.768  0.0000E+00  0.0000E+00  0.1200E+03  0.1200E+03
    -28.530  0.0000E+00  0.0000E+00  0.1200E+03  0.1200E+03
    -28.291  0.0000E+00  0.0000E+00  0.1200E+03  0.1200E+03
    -28.053  0.0000E+00  0.0000E+00  0.1200E+03  0.1200E+03
    -27.815  0.0000E+00  0.0000E+00  0.1200E+03  0.1200E+03
    -27.577  0.0000E+00  0.0000E+00  0.1200E+03  0.1200E+03
    -27.339  0.0000E+00  0.0000E+00  0.1200E+03  0.1200E+03
    -27.100  0.0000E+00  0.0000E+00  0.1200E+03  0.1200E+03
    -26.862  0.0000E+00  0.0000E+00  0.1200E+03  0.1200E+03
    -26.624  0.0000E+00  0.0000E+00  0.1200E+03  0.1200E+03
    -26.386  0.0000E+00  0.0000E+00  0.1200E+03  0.1200E+03
    -26.148  0.0000E+00  0.0000E+00  0.1200E+03  0.1200E+03
    -25.909  0.0000E+00  0.0000E+00  0.1200E+03  0.1200E+03
    -25.671  0.0000E+00  0.0000E+00  0.1200E+03  0.1200E+03
    -25.433  0.0000E+00  0.0000E+00  0.1200E+03  0.1200E+03
    -25.195  0.0000E+00  0.0000E+00  0.1200E+03  0.1200E+03
    -24.957  0.0000E+00  0.0000E+00  0.1200E+03  0.1200E+03
    -24.718  0.0000E+00  0.0000E+00  0.1200E+03  0.1200E+03
    -24.480  0.0000E+00  0.0000E+00  0.1200E+03  0.1200E+03
    -24.242  0.0000E+00  0.0000E+00  0.1200E+03  0.1200E+03
    -24.004  0.0000E+00  0.0000E+00  0.1200E+03  0.1200E+03
    -23.766  0.0000E+00  0.0000E+00  0.1200E+03  0.1200E+03
    -23.527  0.0000E+00  0.0000E+00  0.1200E+03  0.1200E+03
    -23.289  0.0000E+00  0.0000E+00  0.1200E+03  0.1200E+03
    -23.051  0.0000E+00  0.0000E+00  0.1200E+03  0.1200E+03
    -22.813  0.0000E+00  0.0000E+00  0.1200E+03  0.1200E+03
    -22.575  0.0000E+00  0.0000E+00  0.1200E+03  0.1200E+03
    -22.336  0.0000E+00  0.0000E+00  0.1200E+03  0.1200E+03
    -22.098  0.0000E+00  0.0000E+00  0.1200E+03  0.1200E+03
    -21.860  0.0000E+00  0.0000E+00  0.1200E+03  0.1200E+03
    -21.622  0.0000E+00  0.0000E+00  0.1200E+03  0.1200E+03
    -21.384  0.0000E+00  0.0000E+00  0.1200E+03  0.1200E+03
    -21.145  0.0000E+00  0.0000E+00  0.1200E+03  0.1200E+03
    -20.907  0.0000E+00  0.0000E+00  0.1200E+03  0.1200E+03
    -20.669  0.0000E+00  0.0000E+00  0.1200E+03  0.1200E+03
    -20.431  0.0000E+00  0.0000E+00  0.1200E+03  0.1200E+03
    -20.193  0.0000E+00  0.0000E+00  0.1200E+03  0.1200E+03
    -19.954  0.0000E+00  0.0000E+00  0.1200E+03  0.1200E+03
    -19.716  0.0000E+00  0.0000E+00  0.1200E+03  0.1200E+03
    -19.478  0.0000E+00  0.0000E+00  0.1200E+03  0.1200E+03
    -19.240  0.0000E+00  0.0000E+00  0.1200E+03  0.1200E+03
    -19.002  0.0000E+00  0.0000E+00  0.1200E+03  0.1200E+03
    -18.763  0.0000E+00  0.0000E+00  0.1200E+03  0.1200E+03
    -18.525  0.0000E+00  0.0000E+00  0.1200E+03  0.1200E+03
    -18.287  0.0000E+00  0.0000E+00  0.1200E+03  0.1200E+03
    -18.049  0.0000E+00  0.0000E+00  0.1200E+03  0.1200E+03
    -17.811  0.0000E+00  0.0000E+00  0.1200E+03  0.1200E+03
    -17.573  0.0000E+00  0.0000E+00  0.1200E+03  0.1200E+03
    -17.334  0.0000E+00  0.0000E+00  0.1200E+03  0.1200E+03
    -17.096  0.0000E+00  0.0000E+00  0.1200E+03  0.1200E+03
    -16.858  0.0000E+00  0.0000E+00  0.1200E+03  0.1200E+03
    -16.620  0.0000E+00  0.0000E+00  0.1200E+03  0.1200E+03
    -16.382  0.0000E+00  0.0000E+00  0.1200E+03  0.1200E+03
    -16.143  0.0000E+00  0.0000E+00  0.1200E+03  0.1200E+03
    -15.905  0.0000E+00  0.0000E+00  0.1200E+03  0.1200E+03
    -15.667  0.0000E+00  0.0000E+00  0.1200E+03  0.1200E+03
    -15.429  0.0000E+00  0.0000E+00  0.1200E+03  0.1200E+03
    -15.191  0.0000E+00  0.0000E+00  0.1200E+03  0.1200E+03
    -14.952  0.0000E+00  0.0000E+00  0.1200E+03  0.1200E+03
    -14.714  0.0000E+00  0.0000E+00  0.1200E+03  0.1200E+03
    -14.476  0.0000E+00  0.0000E+00  0.1200E+03  0.1200E+03
    -14.238  0.0000E+00  0.0000E+00  0.1200E+03  0.1200E+03
    -14.000  0.0000E+00  0.0000E+00  0.1200E+03  0.1200E+03
    -13.761  0.9145E-09  0.0000E+00  0.1200E+03  0.1200E+03
    -13.523  0.8351E+01  0.1381E-15  0.1220E+03  0.1200E+03
    -13.285  0.5993E+02  0.2817E+00  0.1363E+03  0.1201E+03
    -13.047  0.3248E+02  0.6640E+02  0.1440E+03  0.1359E+03
    -12.809  0.3390E-03  0.3408E+02  0.1440E+03  0.1440E+03
    -12.570  0.0000E+00  0.4378E-04  0.1440E+03  0.1440E+03
    -12.332  0.0000E+00  0.0000E+00  0.1440E+03  0.1440E+03
    -12.094  0.0000E+00  0.0000E+00  0.1440E+03  0.1440E+03
    -11.856  0.0000E+00  0.0000E+00  0.1440E+03  0.1440E+03
    -11.618  0.0000E+00  0.0000E+00  0.1440E+03  0.1440E+03
    -11.379  0.0000E+00  0.0000E+00  0.1440E+03  0.1440E+03
    -11.141  0.0000E+00  0.0000E+00  0.1440E+03  0.1440E+03
    -10.903  0.0000E+00  0.0000E+00  0.1440E+03  0.1440E+03
    -10.665  0.0000E+00  0.0000E+00  0.1440E+03  0.1440E+03
    -10.427  0.0000E+00  0.0000E+00  0.1440E+03  0.1440E+03
    -10.188  0.0000E+00  0.0000E+00  0.1440E+03  0.1440E+03
     -9.950  0.0000E+00  0.0000E+00  0.1440E+03  0.1440E+03
     -9.712  0.0000E+00  0.0000E+00  0.1440E+03  0.1440E+03
     -9.474  0.0000E+00  0.0000E+00  0.1440E+03  0.1440E+03
     -9.236  0.0000E+00  0.0000E+00  0.1440E+03  0.1440E+03
     -8.997  0.0000E+00  0.0000E+00  0.1440E+03  0.1440E+03
     -8.759  0.0000E+00  0.0000E+00  0.1440E+03  0.1440E+03
     -8.521  0.0000E+00  0.0000E+00  0.1440E+03  0.1440E+03
     -8.283  0.0000E+00  0.0000E+00  0.1440E+03  0.1440E+03
     -8.045  0.0000E+00  0.0000E+00  0.1440E+03  0.1440E+03
     -7.806  0.9819E-02  0.1381E-15  0.1440E+03  0.1440E+03
     -7.568  0.1809E+02  0.1140E+00  0.1483E+03  0.1440E+03
     -7.330  0.4790E+02  0.2853E+02  0.1597E+03  0.1508E+03
     -7.092  0.3382E+02  0.4937E+02  0.1678E+03  0.1626E+03
     -6.854  0.9372E+00  0.2203E+02  0.1680E+03  0.1678E+03
     -6.615  0.0000E+00  0.7134E+00  0.1680E+03  0.1680E+03
     -6.377  0.0000E+00  0.0000E+00  0.1680E+03  0.1680E+03
     -6.139  0.0000E+00  0.0000E+00  0.1680E+03  0.1680E+03
     -5.901  0.0000E+00  0.0000E+00  0.1680E+03  0.1680E+03
     -5.663  0.0000E+00  0.0000E+00  0.1680E+03  0.1680E+03
     -5.424  0.0000E+00  0.0000E+00  0.1680E+03  0.1680E+03
     -5.186  0.0000E+00  0.0000E+00  0.1680E+03  0.1680E+03
     -4.948  0.0000E+00  0.0000E+00  0.1680E+03  0.1680E+03
     -4.710  0.0000E+00  0.0000E+00  0.1680E+03  0.1680E+03
     -4.472  0.0000E+00  0.0000E+00  0.1680E+03  0.1680E+03
     -4.233  0.0000E+00  0.0000E+00  0.1680E+03  0.1680E+03
     -3.995  0.0000E+00  0.0000E+00  0.1680E+03  0.1680E+03
     -3.757  0.0000E+00  0.0000E+00  0.1680E+03  0.1680E+03
     -3.519  0.0000E+00  0.0000E+00  0.1680E+03  0.1680E+03
     -3.281  0.0000E+00  0.0000E+00  0.1680E+03  0.1680E+03
     -3.042  0.0000E+00  0.0000E+00  0.1680E+03  0.1680E+03
     -2.804  0.0000E+00  0.0000E+00  0.1680E+03  0.1680E+03
     -2.566  0.0000E+00  0.0000E+00  0.1680E+03  0.1680E+03
     -2.328  0.0000E+00  0.0000E+00  0.1680E+03  0.1680E+03
     -2.090  0.1620E-05  0.0000E+00  0.1680E+03  0.1680E+03
     -1.851  0.7582E+01  0.0000E+00  0.1698E+03  0.1680E+03
     -1.613  0.5786E+02  0.0000E+00  0.1836E+03  0.1680E+03
     -1.375  0.4208E+02  0.0000E+00  0.1936E+03  0.1680E+03
     -1.137  0.3238E+02  0.0000E+00  0.2013E+03  0.1680E+03
     -0.899  0.5359E+02  0.1526E-08  0.2141E+03  0.1680E+03
     -0.660  0.5350E+02  0.1682E+01  0.2268E+03  0.1684E+03
     -0.422  0.6672E+02  0.1700E+02  0.2427E+03  0.1724E+03
     -0.184  0.5476E+02  0.3871E+02  0.2558E+03  0.1817E+03
      0.054  0.3433E+02  0.3541E+02  0.2639E+03  0.1901E+03
      0.292  0.5496E+02  0.2243E+02  0.2770E+03  0.1954E+03
      0.530  0.4790E+02  0.4863E+02  0.2884E+03  0.2070E+03
      0.769  0.3250E+02  0.4841E+02  0.2962E+03  0.2186E+03
      1.007  0.4981E+02  0.6837E+02  0.3081E+03  0.2348E+03
      1.245  0.4865E+02  0.2677E+02  0.3196E+03  0.2412E+03
      1.483  0.5447E+02  0.2270E+02  0.3326E+03  0.2466E+03
      1.721  0.6193E+02  0.3789E+02  0.3474E+03  0.2557E+03
      1.960  0.3440E+02  0.4603E+02  0.3556E+03  0.2666E+03
      2.198  0.2462E+02  0.2969E+02  0.3614E+03  0.2737E+03
      2.436  0.1343E+02  0.3583E+02  0.3646E+03  0.2822E+03
      2.674  0.3760E+02  0.2533E+02  0.3736E+03  0.2883E+03
      2.912  0.3859E+02  0.4569E+02  0.3828E+03  0.2991E+03
      3.151  0.3021E+02  0.4179E+02  0.3900E+03  0.3091E+03
      3.389  0.4366E+02  0.1483E+02  0.4004E+03  0.3126E+03
      3.627  0.5330E+02  0.2995E+02  0.4131E+03  0.3198E+03
      3.865  0.4757E+02  0.5729E+02  0.4244E+03  0.3334E+03
      4.103  0.2964E+02  0.1087E+02  0.4315E+03  0.3360E+03
      4.342  0.2250E+01  0.1271E-04  0.4320E+03  0.3360E+03
      4.580  0.0000E+00  0.0000E+00  0.4320E+03  0.3360E+03
      4.818  0.0000E+00  0.0000E+00  0.4320E+03  0.3360E+03
      5.056  0.0000E+00  0.0000E+00  0.4320E+03  0.3360E+03
      5.294  0.0000E+00  0.0000E+00  0.4320E+03  0.3360E+03
      5.533  0.0000E+00  0.0000E+00  0.4320E+03  0.3360E+03
      5.771  0.0000E+00  0.0000E+00  0.4320E+03  0.3360E+03
      6.009  0.0000E+00  0.3006E-02  0.4320E+03  0.3360E+03
      6.247  0.0000E+00  0.1848E+01  0.4320E+03  0.3364E+03
      6.485  0.0000E+00  0.1331E+02  0.4320E+03  0.3396E+03
      6.724  0.0000E+00  0.2689E+02  0.4320E+03  0.3460E+03
      6.962  0.0000E+00  0.2499E+02  0.4320E+03  0.3520E+03
      7.200  0.5698E-05  0.5685E+02  0.4320E+03  0.3655E+03
      7.438  0.1550E+00  0.7631E+02  0.4320E+03  0.3837E+03
      7.676  0.7083E+00  0.2957E+02  0.4322E+03  0.3907E+03
      7.915  0.1458E+01  0.4107E+02  0.4326E+03  0.4005E+03
      8.153  0.4803E+01  0.7738E+02  0.4337E+03  0.4189E+03
      8.391  0.6946E+01  0.5123E+02  0.4354E+03  0.4311E+03
      8.629  0.1574E+02  0.4009E+01  0.4391E+03  0.4321E+03
      8.867  0.2380E+02  0.1101E+01  0.4448E+03  0.4324E+03
      9.106  0.1965E+02  0.4454E+01  0.4495E+03  0.4334E+03
      9.344  0.1942E+02  0.1051E+02  0.4541E+03  0.4359E+03
      9.582  0.1994E+02  0.2072E+02  0.4588E+03  0.4409E+03
      9.820  0.2438E+02  0.2873E+02  0.4646E+03  0.4477E+03
     10.058  0.2212E+02  0.3009E+02  0.4699E+03  0.4549E+03
     10.297  0.1780E+02  0.3018E+02  0.4741E+03  0.4621E+03
     10.535  0.2459E+02  0.2582E+02  0.4800E+03  0.4682E+03
     10.773  0.1528E+02  0.2597E+02  0.4836E+03  0.4744E+03
     11.011  0.2694E+02  0.2455E+02  0.4901E+03  0.4802E+03
     11.249  0.4539E+02  0.1016E+02  0.5009E+03  0.4827E+03
     11.488  0.4873E+02  0.2566E+02  0.5125E+03  0.4888E+03
     11.726  0.3555E+02  0.2992E+02  0.5209E+03  0.4959E+03
     11.964  0.2024E+02  0.5683E+02  0.5258E+03  0.5094E+03
     12.202  0.2086E+02  0.4456E+02  0.5307E+03  0.5201E+03
     12.440  0.2969E+02  0.2695E+02  0.5378E+03  0.5265E+03
     12.679  0.3284E+02  0.2365E+02  0.5456E+03  0.5321E+03
     12.917  0.1900E+02  0.2773E+02  0.5502E+03  0.5387E+03
     13.155  0.7656E+01  0.3302E+02  0.5520E+03  0.5466E+03
     13.393  0.8739E-01  0.1872E+02  0.5520E+03  0.5510E+03
     13.631  0.0000E+00  0.4059E+01  0.5520E+03  0.5520E+03
     13.870  0.0000E+00  0.4500E-05  0.5520E+03  0.5520E+03
     14.108  0.0000E+00  0.0000E+00  0.5520E+03  0.5520E+03
     14.346  0.0000E+00  0.0000E+00  0.5520E+03  0.5520E+03
     14.584  0.0000E+00  0.0000E+00  0.5520E+03  0.5520E+03
     14.822  0.0000E+00  0.0000E+00  0.5520E+03  0.5520E+03
     15.061  0.0000E+00  0.0000E+00  0.5520E+03  0.5520E+03
     15.299  0.0000E+00  0.0000E+00  0.5520E+03  0.5520E+03
     15.537  0.0000E+00  0.0000E+00  0.5520E+03  0.5520E+03
     15.775  0.0000E+00  0.0000E+00  0.5520E+03  0.5520E+03
     16.013  0.0000E+00  0.0000E+00  0.5520E+03  0.5520E+03
     16.252  0.0000E+00  0.0000E+00  0.5520E+03  0.5520E+03
     16.490  0.0000E+00  0.0000E+00  0.5520E+03  0.5520E+03
     16.728  0.0000E+00  0.0000E+00  0.5520E+03  0.5520E+03
