 vasp.5.4.4.18Apr17-6-g9f103f2a35 (build Oct 25 2017 14:42:18) complex          
  
 executed on             LinuxIFC date 2021.04.16  12:29:40
 running on   48 total cores
 distrk:  each k-point on   24 cores,    2 groups
 distr:  one band on NCORES_PER_BAND=   6 cores,    4 groups


--------------------------------------------------------------------------------------------------------


 INCAR:
 POTCAR:    PAW_PBE Li_sv 10Sep2004               
 POTCAR:    PAW_PBE O 08Apr2002                   
 POTCAR:    PAW_PBE S 06Sep2000                   
 POTCAR:    PAW_PBE Fe_pv 02Aug2007               

 ----------------------------------------------------------------------------- 
|                                                                             |
|           W    W    AA    RRRRR   N    N  II  N    N   GGGG   !!!           |
|           W    W   A  A   R    R  NN   N  II  NN   N  G    G  !!!           |
|           W    W  A    A  R    R  N N  N  II  N N  N  G       !!!           |
|           W WW W  AAAAAA  RRRRR   N  N N  II  N  N N  G  GGG   !            |
|           WW  WW  A    A  R   R   N   NN  II  N   NN  G    G                |
|           W    W  A    A  R    R  N    N  II  N    N   GGGG   !!!           |
|                                                                             |
|      You have enabled k-point parallelism (KPAR>1).                         |
|      This developmental code was originally  written by Paul Kent at ORNL,  |
|      and carefully double checked in Vienna.                                |
|      GW as well as linear response parallelism added by Martijn Marsman     |
|      and Georg Kresse.                                                      |
|      Carefully verify results versus KPAR=1.                                |
|      Report problems to Paul Kent and Vienna.                               |
|                                                                             |
 ----------------------------------------------------------------------------- 

 POTCAR:    PAW_PBE Li_sv 10Sep2004               
  local pseudopotential read in
  atomic valenz-charges read in
  non local Contribution for L=           0  read in
    real space projection operators read in
  non local Contribution for L=           0  read in
    real space projection operators read in
  non local Contribution for L=           1  read in
    real space projection operators read in
    PAW grid and wavefunctions read in
 
   number of l-projection  operators is LMAX  =           3
   number of lm-projection operators is LMMAX =           5
 
 POTCAR:    PAW_PBE O 08Apr2002                   
  local pseudopotential read in
  partial core-charges read in
  partial kinetic energy density read in
  kinetic energy density of atom read in
  atomic valenz-charges read in
  non local Contribution for L=           0  read in
    real space projection operators read in
  non local Contribution for L=           0  read in
    real space projection operators read in
  non local Contribution for L=           1  read in
    real space projection operators read in
  non local Contribution for L=           1  read in
    real space projection operators read in
    PAW grid and wavefunctions read in
 
   number of l-projection  operators is LMAX  =           4
   number of lm-projection operators is LMMAX =           8
 
 POTCAR:    PAW_PBE S 06Sep2000                   
  local pseudopotential read in
  partial core-charges read in
  partial kinetic energy density read in
  atomic valenz-charges read in
  non local Contribution for L=           0  read in
    real space projection operators read in
  non local Contribution for L=           0  read in
    real space projection operators read in
  non local Contribution for L=           1  read in
    real space projection operators read in
  non local Contribution for L=           1  read in
    real space projection operators read in
    PAW grid and wavefunctions read in
 
   number of l-projection  operators is LMAX  =           4
   number of lm-projection operators is LMMAX =           8
 
 POTCAR:    PAW_PBE Fe_pv 02Aug2007               
  local pseudopotential read in
  partial core-charges read in
  partial kinetic energy density read in
  atomic valenz-charges read in
  non local Contribution for L=           1  read in
    real space projection operators read in
  non local Contribution for L=           1  read in
    real space projection operators read in
  non local Contribution for L=           2  read in
    real space projection operators read in
  non local Contribution for L=           2  read in
    real space projection operators read in
  non local Contribution for L=           0  read in
    real space projection operators read in
  non local Contribution for L=           0  read in
    real space projection operators read in
    PAW grid and wavefunctions read in
 
   number of l-projection  operators is LMAX  =           6
   number of lm-projection operators is LMMAX =          18
 

 ----------------------------------------------------------------------------- 
|                                                                             |
|  ADVICE TO THIS USER RUNNING 'VASP/VAMP'   (HEAR YOUR MASTER'S VOICE ...):  |
|                                                                             |
|      You have a (more or less) 'large supercell' and for larger cells       |
|      it might be more efficient to use real space projection opertators     |
|      So try LREAL= Auto  in the INCAR   file.                               |
|      Mind:          For very  accurate calculation you might also keep the  |
|      reciprocal projection scheme          (i.e. LREAL=.FALSE.)             |
|                                                                             |
 ----------------------------------------------------------------------------- 

  PAW_PBE Li_sv 10Sep2004               :
 energy of atom  1       EATOM= -202.7858
 kinetic energy error for atom=    0.0072 (will be added to EATOM!!)
  PAW_PBE O 08Apr2002                   :
 energy of atom  2       EATOM= -432.3788
 kinetic energy error for atom=    0.0129 (will be added to EATOM!!)
  PAW_PBE S 06Sep2000                   :
 energy of atom  3       EATOM= -276.8230
 kinetic energy error for atom=    0.0008 (will be added to EATOM!!)
  PAW_PBE Fe_pv 02Aug2007               :
 energy of atom  4       EATOM=-2457.4239
 kinetic energy error for atom=    0.0041 (will be added to EATOM!!)
 
 
 POSCAR: # Compound: Li48O24S24Fe24. Old comment:
  positions in direct lattice
  No initial velocities read in
 exchange correlation table for  LEXCH =        8
   RHO(1)=    0.500       N(1)  =     2000
   RHO(2)=  100.500       N(2)  =     4000
 


--------------------------------------------------------------------------------------------------------


 ion  position               nearest neighbor table
   1  0.035  0.363  0.356-  49 1.96  51 1.97  73 2.65
   2  0.369  0.363  0.356-  50 1.97  49 1.98  74 2.65
   3  0.702  0.363  0.356-  50 1.97  51 1.97  75 2.65
   4  0.035  0.863  0.356-  54 1.97  52 1.97  76 2.65
   5  0.369  0.863  0.356-  52 1.97  53 1.97  77 2.65
   6  0.702  0.863  0.356-  53 1.97  54 1.97  78 2.65
   7  0.035  0.363  0.856-  57 1.97  55 1.97  79 2.65
   8  0.369  0.363  0.856-  55 1.97  56 1.97  80 2.65
   9  0.702  0.363  0.856-  56 1.97  57 1.97  81 2.65
  10  0.035  0.863  0.856-  60 1.97  58 1.97  82 2.65
  11  0.369  0.863  0.856-  58 1.97  59 1.97  83 2.65
  12  0.702  0.863  0.856-  59 1.97  60 1.97  84 2.65
  13  0.035  0.113  0.144-  63 1.97  61 1.97  85 2.65
  14  0.369  0.113  0.144-  61 1.97  62 1.97  86 2.65
  15  0.702  0.113  0.144-  62 1.97  63 1.97  87 2.65
  16  0.035  0.613  0.144-  66 1.97  64 1.97  88 2.65
  17  0.369  0.613  0.144-  64 1.97  65 1.97  89 2.65
  18  0.702  0.613  0.144-  65 1.97  66 1.97  90 2.65
  19  0.035  0.113  0.644-  69 1.97  67 1.97  91 2.65
  20  0.369  0.113  0.644-  67 1.97  68 1.97  92 2.65
  21  0.702  0.113  0.644-  68 1.97  69 1.97  93 2.65
  22  0.035  0.613  0.644-  72 1.97  70 1.97  94 2.65
  23  0.369  0.613  0.644-  70 1.97  71 1.97  95 2.65
  24  0.702  0.613  0.644-  71 1.97  72 1.97  96 2.65
  25  0.202  0.219  0.272-  61 1.99  49 2.02  85 2.55  86 2.55
  26  0.535  0.219  0.272-  62 1.99  50 2.02  86 2.55  87 2.55
  27  0.869  0.219  0.272-  63 1.99  51 2.02  87 2.55  85 2.55
  28  0.202  0.719  0.272-  64 1.99  52 2.02  88 2.55  89 2.55
  29  0.535  0.719  0.272-  65 1.99  53 2.02  89 2.55  90 2.55
  30  0.869  0.719  0.272-  66 1.99  54 2.02  90 2.55  88 2.55
  31  0.202  0.219  0.772-  67 1.99  55 2.02  91 2.55  92 2.55
  32  0.535  0.219  0.772-  68 1.99  56 2.02  92 2.55  93 2.55
  33  0.869  0.219  0.772-  69 1.99  57 2.02  93 2.55  91 2.55
  34  0.202  0.719  0.772-  70 1.99  58 2.02  94 2.55  95 2.55
  35  0.535  0.719  0.772-  71 1.99  59 2.02  95 2.55  96 2.55
  36  0.869  0.719  0.772-  72 1.99  60 2.02  96 2.55  94 2.55
  37  0.202  0.469  0.228-  49 1.99  64 2.02  73 2.55  74 2.55
  38  0.535  0.469  0.228-  50 1.99  65 2.02  74 2.55  75 2.55
  39  0.869  0.469  0.228-  51 1.99  66 2.02  75 2.55  73 2.55
  40  0.202  0.969  0.228-  52 1.99  61 2.02  76 2.55  77 2.55
  41  0.535  0.969  0.228-  53 1.99  62 2.02  77 2.55  78 2.55
  42  0.869  0.969  0.228-  54 1.99  63 2.02  78 2.55  76 2.55
  43  0.202  0.469  0.728-  55 1.99  70 2.02  79 2.55  80 2.55
  44  0.535  0.469  0.728-  56 1.99  71 2.02  80 2.55  81 2.55
  45  0.869  0.469  0.728-  57 1.99  72 2.02  81 2.55  79 2.55
  46  0.202  0.969  0.728-  58 1.99  67 2.02  82 2.55  83 2.55
  47  0.535  0.969  0.728-  59 1.99  68 2.02  83 2.55  84 2.55
  48  0.869  0.969  0.728-  60 1.99  69 2.02  84 2.55  82 2.55
  49  0.201  0.368  0.374-   1 1.96   2 1.98  37 1.99 100 2.01  25 2.02 115 2.02
  50  0.535  0.368  0.374-   3 1.97   2 1.97  38 1.99 101 2.01  26 2.02 116 2.02
  51  0.869  0.368  0.374-   1 1.97   3 1.97  39 1.99 102 2.01  27 2.02 117 2.02
  52  0.202  0.868  0.374-   5 1.97   4 1.97  40 1.99  97 2.01  28 2.02 118 2.02
  53  0.535  0.868  0.374-   6 1.97   5 1.97  41 1.99  98 2.01  29 2.02 119 2.02
  54  0.869  0.868  0.374-   4 1.97   6 1.97  42 1.99  99 2.01  30 2.02 120 2.02
  55  0.202  0.368  0.874-   8 1.97   7 1.97  43 1.99 106 2.01  31 2.02 109 2.02
  56  0.535  0.368  0.874-   9 1.97   8 1.97  44 1.99 107 2.01  32 2.02 110 2.02
  57  0.869  0.368  0.874-   7 1.97   9 1.97  45 1.99 108 2.01  33 2.02 111 2.02
  58  0.202  0.868  0.874-  11 1.97  10 1.97  46 1.99 103 2.01  34 2.02 112 2.02
  59  0.535  0.868  0.874-  12 1.97  11 1.97  47 1.99 104 2.01  35 2.02 113 2.02
  60  0.869  0.868  0.874-  10 1.97  12 1.97  48 1.99 105 2.01  36 2.02 114 2.02
  61  0.202  0.118  0.126-  14 1.97  13 1.97  25 1.99 109 2.01  40 2.02 103 2.02
  62  0.535  0.118  0.126-  15 1.97  14 1.97  26 1.99 110 2.01  41 2.02 104 2.02
  63  0.869  0.118  0.126-  13 1.97  15 1.97  27 1.99 111 2.01  42 2.02 105 2.02
  64  0.202  0.618  0.126-  17 1.97  16 1.97  28 1.99 112 2.01  37 2.02 106 2.02
  65  0.535  0.618  0.126-  18 1.97  17 1.97  29 1.99 113 2.01  38 2.02 107 2.02
  66  0.869  0.618  0.126-  16 1.97  18 1.97  30 1.99 114 2.01  39 2.02 108 2.02
  67  0.202  0.118  0.626-  20 1.97  19 1.97  31 1.99 115 2.01  46 2.02  97 2.02
  68  0.535  0.118  0.626-  21 1.97  20 1.97  32 1.99 116 2.01  47 2.02  98 2.02
  69  0.869  0.118  0.626-  19 1.97  21 1.97  33 1.99 117 2.01  48 2.02  99 2.02
  70  0.202  0.618  0.626-  23 1.97  22 1.97  34 1.99 118 2.01  43 2.02 100 2.02
  71  0.535  0.618  0.626-  24 1.97  23 1.97  35 1.99 119 2.01  44 2.02 101 2.02
  72  0.869  0.618  0.626-  22 1.97  24 1.97  36 1.99 120 2.01  45 2.02 102 2.02
  73  0.035  0.370  0.120-  37 2.55  39 2.55 111 2.56 109 2.56   1 2.65
  74  0.369  0.370  0.120-  38 2.55  37 2.55 109 2.56 110 2.56   2 2.65
  75  0.702  0.370  0.120-  39 2.55  38 2.55 110 2.56 111 2.56   3 2.65
  76  0.035  0.870  0.120-  40 2.55  42 2.55 114 2.56 112 2.56   4 2.65
  77  0.369  0.870  0.120-  41 2.55  40 2.55 112 2.56 113 2.56   5 2.65
  78  0.702  0.870  0.120-  42 2.55  41 2.55 113 2.56 114 2.56   6 2.65
  79  0.035  0.370  0.620-  43 2.55  45 2.55 117 2.56 115 2.56   7 2.65
  80  0.369  0.370  0.620-  44 2.55  43 2.55 115 2.56 116 2.56   8 2.65
  81  0.702  0.370  0.620-  45 2.55  44 2.55 116 2.56 117 2.56   9 2.65
  82  0.035  0.870  0.620-  46 2.55  48 2.55 120 2.56 118 2.56  10 2.65
  83  0.369  0.870  0.620-  47 2.55  46 2.55 118 2.56 119 2.56  11 2.65
  84  0.702  0.870  0.620-  48 2.55  47 2.55 119 2.56 120 2.56  12 2.65
  85  0.035  0.120  0.380-  25 2.55  27 2.55  99 2.56  97 2.56  13 2.65
  86  0.369  0.120  0.380-  26 2.55  25 2.55  97 2.56  98 2.56  14 2.65
  87  0.702  0.120  0.380-  27 2.55  26 2.55  98 2.56  99 2.56  15 2.65
  88  0.035  0.620  0.380-  28 2.55  30 2.55 102 2.56 100 2.56  16 2.65
  89  0.369  0.620  0.380-  29 2.55  28 2.55 100 2.56 101 2.56  17 2.65
  90  0.702  0.620  0.380-  30 2.55  29 2.55 101 2.56 102 2.56  18 2.65
  91  0.035  0.120  0.880-  31 2.55  33 2.55 105 2.56 103 2.56  19 2.65
  92  0.369  0.120  0.880-  32 2.55  31 2.55 103 2.56 104 2.56  20 2.65
  93  0.702  0.120  0.880-  33 2.55  32 2.55 104 2.56 105 2.56  21 2.65
  94  0.035  0.620  0.880-  34 2.55  36 2.55 108 2.56 106 2.56  22 2.65
  95  0.369  0.620  0.880-  35 2.55  34 2.55 106 2.56 107 2.56  23 2.65
  96  0.702  0.620  0.880-  36 2.55  35 2.55 107 2.56 108 2.56  24 2.65
  97  0.202  0.012  0.480-  52 2.01  67 2.02  86 2.56  85 2.56
  98  0.535  0.012  0.480-  53 2.01  68 2.02  87 2.56  86 2.56
  99  0.869  0.012  0.480-  54 2.01  69 2.02  85 2.56  87 2.56
 100  0.202  0.512  0.480-  49 2.01  70 2.02  89 2.56  88 2.56
 101  0.535  0.512  0.480-  50 2.01  71 2.02  90 2.56  89 2.56
 102  0.869  0.512  0.480-  51 2.01  72 2.02  88 2.56  90 2.56
 103  0.202  0.012  0.980-  58 2.01  61 2.02  92 2.56  91 2.56
 104  0.535  0.012  0.980-  59 2.01  62 2.02  93 2.56  92 2.56
 105  0.869  0.012  0.980-  60 2.01  63 2.02  91 2.56  93 2.56
 106  0.202  0.512  0.980-  55 2.01  64 2.02  95 2.56  94 2.56
 107  0.535  0.512  0.980-  56 2.01  65 2.02  96 2.56  95 2.56
 108  0.869  0.512  0.980-  57 2.01  66 2.02  94 2.56  96 2.56
 109  0.202  0.262  0.020-  61 2.01  55 2.02  74 2.56  73 2.56
 110  0.535  0.262  0.020-  62 2.01  56 2.02  75 2.56  74 2.56
 111  0.869  0.262  0.020-  63 2.01  57 2.02  73 2.56  75 2.56
 112  0.202  0.762  0.020-  64 2.01  58 2.02  77 2.56  76 2.56
 113  0.535  0.762  0.020-  65 2.01  59 2.02  78 2.56  77 2.56
 114  0.869  0.762  0.020-  66 2.01  60 2.02  76 2.56  78 2.56
 115  0.202  0.262  0.520-  67 2.01  49 2.02  80 2.56  79 2.56
 116  0.535  0.262  0.520-  68 2.01  50 2.02  81 2.56  80 2.56
 117  0.869  0.262  0.520-  69 2.01  51 2.02  79 2.56  81 2.56
 118  0.202  0.762  0.520-  70 2.01  52 2.02  83 2.56  82 2.56
 119  0.535  0.762  0.520-  71 2.01  53 2.02  84 2.56  83 2.56
 120  0.869  0.762  0.520-  72 2.01  54 2.02  82 2.56  84 2.56
 

IMPORTANT INFORMATION: All symmetrisations will be switched off!
NOSYMM: (Re-)initialisation of all symmetry stuff for point group C_1.

 
 
 KPOINTS: # No comment                            

Automatic generation of k-mesh.
Space group operators:
 irot       det(A)        alpha          n_x          n_y          n_z        tau_x        tau_y        tau_z
    1     1.000000     0.000000     1.000000     0.000000     0.000000     0.000000     0.000000     0.000000
 
 Subroutine IBZKPT returns following result:
 ===========================================
 
 Found     14 irreducible k-points:
 
 Following reciprocal coordinates:
            Coordinates               Weight
  0.000000  0.000000  0.000000      1.000000
  0.333333  0.000000  0.000000      2.000000
  0.000000  0.333333  0.000000      2.000000
  0.333333  0.333333  0.000000      2.000000
 -0.333333  0.333333  0.000000      2.000000
  0.000000  0.000000  0.333333      2.000000
  0.333333  0.000000  0.333333      2.000000
 -0.333333  0.000000  0.333333      2.000000
  0.000000  0.333333  0.333333      2.000000
  0.333333  0.333333  0.333333      2.000000
 -0.333333  0.333333  0.333333      2.000000
 -0.000000 -0.333333  0.333333      2.000000
  0.333333 -0.333333  0.333333      2.000000
 -0.333333 -0.333333  0.333333      2.000000
 
 Following cartesian coordinates:
            Coordinates               Weight
  0.000000  0.000000  0.000000      1.000000
  0.028403 -0.000139  0.000000      2.000000
  0.000145  0.029713  0.000000      2.000000
  0.028548  0.029574  0.000000      2.000000
 -0.028257  0.029851  0.000000      2.000000
  0.000000  0.000000  0.029774      2.000000
  0.028403 -0.000139  0.029774      2.000000
 -0.028403  0.000139  0.029774      2.000000
  0.000145  0.029713  0.029774      2.000000
  0.028548  0.029574  0.029774      2.000000
 -0.028257  0.029851  0.029774      2.000000
 -0.000145 -0.029713  0.029774      2.000000
  0.028257 -0.029851  0.029774      2.000000
 -0.028548 -0.029574  0.029774      2.000000
 


--------------------------------------------------------------------------------------------------------




 Dimension of arrays:
   k-points           NKPTS =     14   k-points in BZ     NKDIM =     14   number of bands    NBANDS=    552
   number of dos      NEDOS =    301   number of ions     NIONS =    120
   non local maximal  LDIM  =      6   non local SUM 2l+1 LMDIM =     18
   total plane-waves  NPLWV = 903168
   max r-space proj   IRMAX =      1   max aug-charges    IRDMAX= 154614
   dimension x,y,z NGX =    98 NGY =   96 NGZ =   96
   dimension x,y,z NGXF=   196 NGYF=  192 NGZF=  192
   support grid    NGXF=   392 NGYF=  384 NGZF=  384
   ions per type =              48  24  24  24
   NGX,Y,Z   is equivalent  to a cutoff of  13.88, 14.23, 14.26 a.u.
   NGXF,Y,Z  is equivalent  to a cutoff of  27.76, 28.45, 28.51 a.u.

 SYSTEM =  unknown system                          
 POSCAR =  # Compound: Li48O24S24Fe24. Old comment:

 Startparameter for this run:
   NWRITE =      1    write-flag & timer
   PREC   = accura    normal or accurate (medium, high low for compatibility)
   ISTART =      0    job   : 0-new  1-cont  2-samecut
   ICHARG =      1    charge: 1-file 2-atom 10-const
   ISPIN  =      2    spin polarized calculation?
   LNONCOLLINEAR =      F non collinear calculations
   LSORBIT =      F    spin-orbit coupling
   INIWAV =      1    electr: 0-lowe 1-rand  2-diag
   LASPH  =      T    aspherical Exc in radial PAW
   METAGGA=      F    non-selfconsistent MetaGGA calc.

 Electronic Relaxation 1
   ENCUT  =  650.0 eV  47.77 Ry    6.91 a.u.  24.40 23.32 23.27*2*pi/ulx,y,z
   ENINI  =  650.0     initial cutoff
   ENAUG  =  628.9 eV  augmentation charge cutoff
   NELM   =    200;   NELMIN=  8; NELMDL=  0     # of ELM steps 
   EDIFF  = 0.1E-05   stopping-criterion for ELM
   LREAL  =      F    real-space projection
   NLSPLINE    = F    spline interpolate recip. space projectors
   LCOMPAT=      F    compatible to vasp.4.4
   GGA_COMPAT  = T    GGA compatible to vasp.4.4-vasp.4.6
   LMAXPAW     = -100 max onsite density
   LMAXMIX     =    4 max onsite mixed and CHGCAR
   VOSKOWN=      0    Vosko Wilk Nusair interpolation
   ROPT   =    0.00000   0.00000   0.00000   0.00000
 Ionic relaxation
   EDIFFG = 0.1E-04   stopping-criterion for IOM
   NSW    =      0    number of steps for IOM
   NBLOCK =      1;   KBLOCK =      1    inner block; outer block 
   IBRION =     -1    ionic relax: 0-MD 1-quasi-New 2-CG
   NFREE  =      0    steps in history (QN), initial steepest desc. (CG)
   ISIF   =      3    stress and relaxation
   IWAVPR =     10    prediction:  0-non 1-charg 2-wave 3-comb
   ISYM   =      0    0-nonsym 1-usesym 2-fastsym
   LCORR  =      T    Harris-Foulkes like correction to forces

   POTIM  = 0.5000    time-step for ionic-motion
   TEIN   =    0.0    initial temperature
   TEBEG  =    0.0;   TEEND  =   0.0 temperature during run
   SMASS  =  -3.00    Nose mass-parameter (am)
   estimated Nose-frequenzy (Omega)   =  0.10E-29 period in steps =****** mass=  -0.315E-26a.u.
   SCALEE = 1.0000    scale energy and forces
   NPACO  =    256;   APACO  = 16.0  distance and # of slots for P.C.
   PSTRESS=    0.0 pullay stress

  Mass of Ions in am
   POMASS =   7.01 16.00 32.07 55.85
  Ionic Valenz
   ZVAL   =   3.00  6.00  6.00 14.00
  Atomic Wigner-Seitz radii
   RWIGS  =  -1.00 -1.00 -1.00 -1.00
  virtual crystal weights 
   VCA    =   1.00  1.00  1.00  1.00
   NELECT =     768.0000    total number of electrons
   NUPDOWN=      -1.0000    fix difference up-down

 DOS related values:
   EMIN   =  10.00;   EMAX   =-10.00  energy-range for DOS
   EFERMI =   0.00
   ISMEAR =     0;   SIGMA  =   0.05  broadening in eV -4-tet -1-fermi 0-gaus

 Electronic relaxation 2 (details)
   IALGO  =     38    algorithm
   LDIAG  =      T    sub-space diagonalisation (order eigenvalues)
   LSUBROT=      F    optimize rotation matrix (better conditioning)
   TURBO    =      0    0=normal 1=particle mesh
   IRESTART =      0    0=no restart 2=restart with 2 vectors
   NREBOOT  =      0    no. of reboots
   NMIN     =      0    reboot dimension
   EREF     =   0.00    reference energy to select bands
   IMIX   =      4    mixing-type and parameters
     AMIX     =   0.40;   BMIX     =  1.00
     AMIX_MAG =   1.60;   BMIX_MAG =  1.00
     AMIN     =   0.10
     WC   =   100.;   INIMIX=   1;  MIXPRE=   1;  MAXMIX= -45

 Intra band minimization:
   WEIMIN = 0.0000     energy-eigenvalue tresh-hold
   EBREAK =  0.45E-09  absolut break condition
   DEPER  =   0.30     relativ break condition  

   TIME   =   0.40     timestep for ELM

  volume/ion in A,a.u.               =      12.28        82.89
  Fermi-wavevector in a.u.,A,eV,Ry     =   1.317335  2.489402 23.611165  1.735372
  Thomas-Fermi vector in A             =   2.447383
 
 Write flags
   LWAVE        =      F    write WAVECAR
   LDOWNSAMPLE  =      F    k-point downsampling of WAVECAR
   LCHARG       =      T    write CHGCAR
   LVTOT        =      F    write LOCPOT, total local potential
   LVHAR        =      F    write LOCPOT, Hartree potential only
   LELF         =      F    write electronic localiz. function (ELF)
   LORBIT       =      0    0 simple, 1 ext, 2 COOP (PROOUT), +10 PAW based schemes


 Dipole corrections
   LMONO  =      F    monopole corrections only (constant potential shift)
   LDIPOL =      F    correct potential (dipole corrections)
   IDIPOL =      0    1-x, 2-y, 3-z, 4-all directions 
   EPSILON=  1.0000000 bulk dielectric constant

 LDA+U is selected, type is set to LDAUTYPE =  2
   angular momentum for each species LDAUL =    -1   -1   -1    2
   U (eV)           for each species LDAUU =   0.0  0.0  0.0  4.0
   J (eV)           for each species LDAUJ =   0.0  0.0  0.0  0.0
 Exchange correlation treatment:
   GGA     =    PE    GGA type
   LEXCH   =     8    internal setting for exchange type
   VOSKOWN=      0    Vosko Wilk Nusair interpolation
   LHFCALC =     F    Hartree Fock is set to
   LHFONE  =     F    Hartree Fock one center treatment
   AEXX    =    0.0000 exact exchange contribution

 Linear response parameters
   LEPSILON=     F    determine dielectric tensor
   LRPA    =     F    only Hartree local field effects (RPA)
   LNABLA  =     F    use nabla operator in PAW spheres
   LVEL    =     F    velocity operator in full k-point grid
   LINTERFAST=   F  fast interpolation
   KINTER  =     0    interpolate to denser k-point grid
   CSHIFT  =0.1000    complex shift for real part using Kramers Kronig
   OMEGAMAX=  -1.0    maximum frequency
   DEG_THRESHOLD= 0.2000000E-02 threshold for treating states as degnerate
   RTIME   =   -0.100 relaxation time in fs
  (WPLASMAI=    0.000 imaginary part of plasma frequency in eV, 0.658/RTIME)
   DFIELD  = 0.0000000 0.0000000 0.0000000 field for delta impulse in time
 
 Orbital magnetization related:
   ORBITALMAG=     F  switch on orbital magnetization
   LCHIMAG   =     F  perturbation theory with respect to B field
   DQ        =  0.001000  dq finite difference perturbation B field
   LLRAUG    =     F  two centre corrections for induced B field



--------------------------------------------------------------------------------------------------------


 Static calculation
 charge density and potential will be updated during run
 spin polarized calculation
 Variant of blocked Davidson
 Davidson routine will perform the subspace rotation
 perform sub-space diagonalisation
    after iterative eigenvector-optimisation
 modified Broyden-mixing scheme, WC =      100.0
 initial mixing is a Kerker type mixing with AMIX =  0.4000 and BMIX =      1.0000
 Hartree-type preconditioning will be used
 using additional bands          168
 reciprocal scheme for non local part
 use partial core corrections
 calculate Harris-corrections to forces 
   (improved forces if not selfconsistent)
 use gradient corrections 
 use of overlap-Matrix (Vanderbilt PP)
 Gauss-broadening in eV      SIGMA  =   0.05


--------------------------------------------------------------------------------------------------------


  energy-cutoff  :      650.00
  volume of cell :     1474.00
      direct lattice vectors                 reciprocal lattice vectors
    11.735727240 -0.057442860  0.000000000     0.085207850 -0.000416288  0.000000000
     0.054807880 11.218334900  0.000000000     0.000436302  0.089137657  0.000000000
     0.000000000  0.000000000 11.195620100     0.000000000  0.000000000  0.089320644

  length of vectors
    11.735867822 11.218468783 11.195620100     0.085208867  0.089138725  0.089320644


 
 k-points in units of 2pi/SCALE and weight: # No comment                            
   0.00000000  0.00000000  0.00000000       0.037
   0.02840262 -0.00013876  0.00000000       0.074
   0.00014543  0.02971255  0.00000000       0.074
   0.02854805  0.02957379  0.00000000       0.074
  -0.02825718  0.02985132  0.00000000       0.074
   0.00000000  0.00000000  0.02977355       0.074
   0.02840262 -0.00013876  0.02977355       0.074
  -0.02840262  0.00013876  0.02977355       0.074
   0.00014543  0.02971255  0.02977355       0.074
   0.02854805  0.02957379  0.02977355       0.074
  -0.02825718  0.02985132  0.02977355       0.074
  -0.00014543 -0.02971255  0.02977355       0.074
   0.02825718 -0.02985132  0.02977355       0.074
  -0.02854805 -0.02957379  0.02977355       0.074
 
 k-points in reciprocal lattice and weights: # No comment                            
   0.00000000  0.00000000  0.00000000       0.037
   0.33333333  0.00000000  0.00000000       0.074
   0.00000000  0.33333333  0.00000000       0.074
   0.33333333  0.33333333  0.00000000       0.074
  -0.33333333  0.33333333  0.00000000       0.074
   0.00000000  0.00000000  0.33333333       0.074
   0.33333333  0.00000000  0.33333333       0.074
  -0.33333333  0.00000000  0.33333333       0.074
   0.00000000  0.33333333  0.33333333       0.074
   0.33333333  0.33333333  0.33333333       0.074
  -0.33333333  0.33333333  0.33333333       0.074
  -0.00000000 -0.33333333  0.33333333       0.074
   0.33333333 -0.33333333  0.33333333       0.074
  -0.33333333 -0.33333333  0.33333333       0.074
 
 position of ions in fractional coordinates (direct lattice) 
   0.03541706  0.36277547  0.35648149
   0.36875039  0.36277547  0.35648149
   0.70208372  0.36277547  0.35648149
   0.03541706  0.86277547  0.35648149
   0.36875039  0.86277547  0.35648149
   0.70208372  0.86277547  0.35648149
   0.03541706  0.36277547  0.85648149
   0.36875039  0.36277547  0.85648149
   0.70208372  0.36277547  0.85648149
   0.03541706  0.86277547  0.85648149
   0.36875039  0.86277547  0.85648149
   0.70208372  0.86277547  0.85648149
   0.03541706  0.11277547  0.14351851
   0.36875039  0.11277547  0.14351851
   0.70208372  0.11277547  0.14351851
   0.03541706  0.61277547  0.14351851
   0.36875039  0.61277547  0.14351851
   0.70208372  0.61277547  0.14351851
   0.03541706  0.11277547  0.64351851
   0.36875039  0.11277547  0.64351851
   0.70208372  0.11277547  0.64351851
   0.03541706  0.61277547  0.64351851
   0.36875039  0.61277547  0.64351851
   0.70208372  0.61277547  0.64351851
   0.20209458  0.21898060  0.27246215
   0.53542792  0.21898060  0.27246215
   0.86876125  0.21898060  0.27246215
   0.20209458  0.71898060  0.27246215
   0.53542792  0.71898060  0.27246215
   0.86876125  0.71898060  0.27246215
   0.20209458  0.21898060  0.77246215
   0.53542792  0.21898060  0.77246215
   0.86876125  0.21898060  0.77246215
   0.20209458  0.71898060  0.77246215
   0.53542792  0.71898060  0.77246215
   0.86876125  0.71898060  0.77246215
   0.20209458  0.46898060  0.22753785
   0.53542792  0.46898060  0.22753785
   0.86876125  0.46898060  0.22753785
   0.20209458  0.96898060  0.22753785
   0.53542792  0.96898060  0.22753785
   0.86876125  0.96898060  0.22753785
   0.20209458  0.46898060  0.72753785
   0.53542792  0.46898060  0.72753785
   0.86876125  0.46898060  0.72753785
   0.20209458  0.96898060  0.72753785
   0.53542792  0.96898060  0.72753785
   0.86876125  0.96898060  0.72753785
   0.20123855  0.36769237  0.37376509
   0.53542398  0.36769237  0.37376509
   0.86875731  0.36769237  0.37376509
   0.20209064  0.86769237  0.37376509
   0.53542398  0.86769237  0.37376509
   0.86875731  0.86769237  0.37376509
   0.20209064  0.36769237  0.87376509
   0.53542398  0.36769237  0.87376509
   0.86875731  0.36769237  0.87376509
   0.20209064  0.86769237  0.87376509
   0.53542398  0.86769237  0.87376509
   0.86875731  0.86769237  0.87376509
   0.20209064  0.11769237  0.12623491
   0.53542398  0.11769237  0.12623491
   0.86875731  0.11769237  0.12623491
   0.20209064  0.61769237  0.12623491
   0.53542398  0.61769237  0.12623491
   0.86875731  0.61769237  0.12623491
   0.20209064  0.11769237  0.62623491
   0.53542398  0.11769237  0.62623491
   0.86875731  0.11769237  0.62623491
   0.20209064  0.61769237  0.62623491
   0.53542398  0.61769237  0.62623491
   0.86875731  0.61769237  0.62623491
   0.03542751  0.37011947  0.12029448
   0.36876084  0.37011947  0.12029448
   0.70209418  0.37011947  0.12029448
   0.03542751  0.87011947  0.12029448
   0.36876084  0.87011947  0.12029448
   0.70209418  0.87011947  0.12029448
   0.03542751  0.37011947  0.62029448
   0.36876084  0.37011947  0.62029448
   0.70209418  0.37011947  0.62029448
   0.03542751  0.87011947  0.62029448
   0.36876084  0.87011947  0.62029448
   0.70209418  0.87011947  0.62029448
   0.03542751  0.12011947  0.37970552
   0.36876084  0.12011947  0.37970552
   0.70209418  0.12011947  0.37970552
   0.03542751  0.62011947  0.37970552
   0.36876084  0.62011947  0.37970552
   0.70209418  0.62011947  0.37970552
   0.03542751  0.12011947  0.87970552
   0.36876084  0.12011947  0.87970552
   0.70209418  0.12011947  0.87970552
   0.03542751  0.62011947  0.87970552
   0.36876084  0.62011947  0.87970552
   0.70209418  0.62011947  0.87970552
   0.20209387  0.01225309  0.48003463
   0.53542720  0.01225309  0.48003463
   0.86876054  0.01225309  0.48003463
   0.20209387  0.51225309  0.48003463
   0.53542720  0.51225309  0.48003463
   0.86876054  0.51225309  0.48003463
   0.20209387  0.01225309  0.98003463
   0.53542720  0.01225309  0.98003463
   0.86876054  0.01225309  0.98003463
   0.20209387  0.51225309  0.98003463
   0.53542720  0.51225309  0.98003463
   0.86876054  0.51225309  0.98003463
   0.20209387  0.26225309  0.01996537
   0.53542720  0.26225309  0.01996537
   0.86876054  0.26225309  0.01996537
   0.20209387  0.76225309  0.01996537
   0.53542720  0.76225309  0.01996537
   0.86876054  0.76225309  0.01996537
   0.20209387  0.26225309  0.51996537
   0.53542720  0.26225309  0.51996537
   0.86876054  0.26225309  0.51996537
   0.20209387  0.76225309  0.51996537
   0.53542720  0.76225309  0.51996537
   0.86876054  0.76225309  0.51996537
 
 position of ions in cartesian coordinates  (Angst):
   0.43552787  4.06770226  3.99103128
   4.34743695  4.04855464  3.99103128
   8.25934603  4.02940702  3.99103128
   0.46293181  9.67686971  3.99103128
   4.37484089  9.65772209  3.99103128
   8.28674997  9.63857447  3.99103128
   0.43552787  4.06770226  9.58884133
   4.34743695  4.04855464  9.58884133
   8.25934603  4.02940702  9.58884133
   0.46293181  9.67686971  9.58884133
   4.37484089  9.65772209  9.58884133
   8.28674997  9.63857447  9.58884133
   0.42182590  1.26311853  1.60677877
   4.33373498  1.24397091  1.60677877
   8.24564406  1.22482329  1.60677877
   0.44922984  6.87228598  1.60677877
   4.36113892  6.85313836  1.60677877
   8.27304800  6.83399074  1.60677877
   0.42182590  1.26311853  7.20458882
   4.33373498  1.24397091  7.20458882
   8.24564406  1.22482329  7.20458882
   0.44922984  6.87228598  7.20458882
   4.36113892  6.85313836  7.20458882
   8.27304800  6.83399074  7.20458882
   2.38372877  2.44498882  3.05038272
   6.29563785  2.42584120  3.05038272
  10.20754693  2.40669358  3.05038272
   2.41113271  8.05415627  3.05038272
   6.32304179  8.03500865  3.05038272
  10.23495087  8.01586103  3.05038272
   2.38372877  2.44498882  8.64819277
   6.29563785  2.42584120  8.64819277
  10.20754693  2.40669358  8.64819277
   2.41113271  8.05415627  8.64819277
   6.32304179  8.03500865  8.64819277
  10.23495087  8.01586103  8.64819277
   2.39743074  5.24957254  2.54742733
   6.30933982  5.23042492  2.54742733
  10.22124890  5.21127730  2.54742733
   2.42483468 10.85873999  2.54742733
   6.33674376 10.83959237  2.54742733
  10.24865284 10.82044475  2.54742733
   2.39743074  5.24957254  8.14523738
   6.30933982  5.23042492  8.14523738
  10.22124890  5.21127730  8.14523738
   2.42483468 10.85873999  8.14523738
   6.33674376 10.83959237  8.14523738
  10.24865284 10.82044475  8.14523738
   2.38183323  4.11333648  4.18453195
   6.30374219  4.09413992  4.18453195
  10.21565127  4.07499230  4.18453195
   2.41923705  9.72245499  4.18453195
   6.33114613  9.70330737  4.18453195
  10.24305521  9.68415975  4.18453195
   2.39183311  4.11328754  9.78234200
   6.30374219  4.09413992  9.78234200
  10.21565127  4.07499230  9.78234200
   2.41923705  9.72245499  9.78234200
   6.33114613  9.70330737  9.78234200
  10.24305521  9.68415975  9.78234200
   2.37813114  1.30870381  1.41327810
   6.29004022  1.28955619  1.41327810
  10.20194930  1.27040857  1.41327810
   2.40553508  6.91787126  1.41327810
   6.31744416  6.89872364  1.41327810
  10.22935324  6.87957602  1.41327810
   2.37813114  1.30870381  7.01108815
   6.29004022  1.28955619  7.01108815
  10.20194930  1.27040857  7.01108815
   2.40553508  6.91787126  7.01108815
   6.31744416  6.89872364  7.01108815
  10.22935324  6.87957602  7.01108815
   0.43605306  4.15008905  1.34677124
   4.34796214  4.13094143  1.34677124
   8.25987122  4.11179381  1.34677124
   0.46345700  9.75925650  1.34677124
   4.37536608  9.74010888  1.34677124
   8.28727516  9.72096126  1.34677124
   0.43605306  4.15008905  6.94458129
   4.34796214  4.13094143  6.94458129
   8.25987122  4.11179381  6.94458129
   0.46345700  9.75925650  6.94458129
   4.37536608  9.74010888  6.94458129
   8.28727516  9.72096126  6.94458129
   0.42235109  1.34550533  4.25103881
   4.33426017  1.32635771  4.25103881
   8.24616925  1.30721009  4.25103881
   0.44975503  6.95467278  4.25103881
   4.36166411  6.93552516  4.25103881
   8.27357319  6.91637754  4.25103881
   0.42235109  1.34550533  9.84884886
   4.33426017  1.32635771  9.84884886
   8.24616925  1.30721009  9.84884886
   0.44975503  6.95467278  9.84884886
   4.36166411  6.93552516  9.84884886
   8.27357319  6.91637754  9.84884886
   2.37239010  0.12585042  5.37428530
   6.28429918  0.10670280  5.37428530
  10.19620826  0.08755518  5.37428530
   2.39979404  5.73501787  5.37428530
   6.31170312  5.71587025  5.37428530
  10.22361220  5.69672263  5.37428530
   2.37239010  0.12585042 10.97209535
   6.28429918  0.10670280 10.97209535
  10.19620826  0.08755518 10.97209535
   2.39979404  5.73501787 10.97209535
   6.31170312  5.71587025 10.97209535
  10.22361220  5.69672263 10.97209535
   2.38609207  2.93043414  0.22352475
   6.29800115  2.91128652  0.22352475
  10.20991023  2.89213890  0.22352475
   2.41349601  8.53960159  0.22352475
   6.32540509  8.52045397  0.22352475
  10.23731417  8.50130635  0.22352475
   2.38609207  2.93043414  5.82133480
   6.29800115  2.91128652  5.82133480
  10.20991023  2.89213890  5.82133480
   2.41349601  8.53960159  5.82133480
   6.32540509  8.52045397  5.82133480
  10.23731417  8.50130635  5.82133480
 


--------------------------------------------------------------------------------------------------------


 k-point  1 :   0.0000 0.0000 0.0000  plane waves:   55469
 k-point  2 :   0.3333 0.0000 0.0000  plane waves:   55443
 k-point  3 :   0.0000 0.3333 0.0000  plane waves:   55474
 k-point  4 :   0.3333 0.3333 0.0000  plane waves:   55456
 k-point  5 :  -0.3333 0.3333 0.0000  plane waves:   55456
 k-point  6 :   0.0000 0.0000 0.3333  plane waves:   55522
 k-point  7 :   0.3333 0.0000 0.3333  plane waves:   55468
 k-point  8 :  -0.3333 0.0000 0.3333  plane waves:   55468
 k-point  9 :   0.0000 0.3333 0.3333  plane waves:   55433
 k-point 10 :   0.3333 0.3333 0.3333  plane waves:   55444
 k-point 11 :  -0.3333 0.3333 0.3333  plane waves:   55444
 k-point 12 :  -0.0000-0.3333 0.3333  plane waves:   55433
 k-point 13 :   0.3333-0.3333 0.3333  plane waves:   55444
 k-point 14 :  -0.3333-0.3333 0.3333  plane waves:   55444

 maximum and minimum number of plane-waves per node :      9314     9185

 maximum number of plane-waves:     55522
 maximum index in each direction: 
   IXMAX=   24   IYMAX=   23   IZMAX=   23
   IXMIN=  -24   IYMIN=  -23   IZMIN=  -23


 parallel 3D FFT for wavefunctions:
    minimum data exchange during FFTs selected (reduces bandwidth)
 parallel 3D FFT for charge:
    minimum data exchange during FFTs selected (reduces bandwidth)


 total amount of memory used by VASP MPI-rank0   801761. kBytes
=======================================================================

   base      :      30000. kBytes
   nonl-proj :      92491. kBytes
   fftplans  :      50318. kBytes
   grid      :      44712. kBytes
   one-center:        622. kBytes
   wavefun   :     583618. kBytes
 
     INWAV:  cpu time    0.0000: real time    0.0000
 Broyden mixing: mesh for mixing (old mesh)
   NGX = 49   NGY = 47   NGZ = 47
  (NGX  =196   NGY  =192   NGZ  =192)
  gives a total of 108241 points

 initial charge density was supplied:
 number of electron     768.0000015 magnetization      96.0009074
 keeping initial charge density in first step


--------------------------------------------------------------------------------------------------------


 Maximum index for augmentation-charges         7847 (set IRDMAX)


--------------------------------------------------------------------------------------------------------


 First call to EWALD:  gamma=   0.156
 Maximum number of real-space cells 3x 3x 3
 Maximum number of reciprocal cells 3x 3x 3

    FEWALD:  cpu time    0.2255: real time    0.2265


--------------------------------------- Iteration      1(   1)  ---------------------------------------


    POTLOK:  cpu time    0.4876: real time    0.5004
    SETDIJ:  cpu time    1.4717: real time    1.4838
     EDDAV:  cpu time  218.2751: real time  220.3108
       DOS:  cpu time    0.0060: real time    0.0080
    --------------------------------------------
      LOOP:  cpu time  220.2404: real time  222.3030

 eigenvalue-minimisations  : 32400
 total energy-change (2. order) : 0.1004337E+05  (-0.4138225E+05)
 number of electron     768.0000015 magnetization      96.0009074
 augmentation part      768.0000015 magnetization      96.0009074

 Free energy of the ion-electron system (eV)
  ---------------------------------------------------
  alpha Z        PSCENC =      1915.67052055
  Ewald energy   TEWEN  =    -48532.26043541
  -Hartree energ DENC   =    -28983.29785898
  -exchange      EXHF   =         0.00000000
  -V(xc)+E(xc)   XCENC  =      3297.26480696
  PAW double counting   =     81710.32686745   -84426.12035439
  entropy T*S    EENTRO =        -0.01833939
  eigenvalues    EBANDS =      -670.15479480
  atomic energy  EATOM  =     85731.96378919
  Solvation  Ediel_sol  =         0.00000000
  ---------------------------------------------------
  free energy    TOTEN  =     10043.37420119 eV

  energy without entropy =    10043.39254058  energy(sigma->0) =    10043.38337089


--------------------------------------------------------------------------------------------------------




--------------------------------------- Iteration      1(   2)  ---------------------------------------


     EDDAV:  cpu time  211.0893: real time  213.1657
       DOS:  cpu time    0.0050: real time    0.0050
    --------------------------------------------
      LOOP:  cpu time  211.0943: real time  213.1707

 eigenvalue-minimisations  : 30912
 total energy-change (2. order) :-0.9006320E+04  (-0.8363421E+04)
 number of electron     768.0000015 magnetization      96.0009074
 augmentation part      768.0000015 magnetization      96.0009074

 Free energy of the ion-electron system (eV)
  ---------------------------------------------------
  alpha Z        PSCENC =      1915.67052055
  Ewald energy   TEWEN  =    -48532.26043541
  -Hartree energ DENC   =    -28983.29785898
  -exchange      EXHF   =         0.00000000
  -V(xc)+E(xc)   XCENC  =      3297.26480696
  PAW double counting   =     81710.32686745   -84426.12035439
  entropy T*S    EENTRO =        -0.05220398
  eigenvalues    EBANDS =     -9676.44087000
  atomic energy  EATOM  =     85731.96378919
  Solvation  Ediel_sol  =         0.00000000
  ---------------------------------------------------
  free energy    TOTEN  =      1037.05426139 eV

  energy without entropy =     1037.10646538  energy(sigma->0) =     1037.08036339


--------------------------------------------------------------------------------------------------------




--------------------------------------- Iteration      1(   3)  ---------------------------------------


     EDDAV:  cpu time  232.0238: real time  234.2236
       DOS:  cpu time    0.0020: real time    0.0020
    --------------------------------------------
      LOOP:  cpu time  232.0258: real time  234.2256

 eigenvalue-minimisations  : 34696
 total energy-change (2. order) :-0.1436809E+04  (-0.1296148E+04)
 number of electron     768.0000015 magnetization      96.0009074
 augmentation part      768.0000015 magnetization      96.0009074

 Free energy of the ion-electron system (eV)
  ---------------------------------------------------
  alpha Z        PSCENC =      1915.67052055
  Ewald energy   TEWEN  =    -48532.26043541
  -Hartree energ DENC   =    -28983.29785898
  -exchange      EXHF   =         0.00000000
  -V(xc)+E(xc)   XCENC  =      3297.26480696
  PAW double counting   =     81710.32686745   -84426.12035439
  entropy T*S    EENTRO =        -0.00000000
  eigenvalues    EBANDS =    -11113.30158176
  atomic energy  EATOM  =     85731.96378919
  Solvation  Ediel_sol  =         0.00000000
  ---------------------------------------------------
  free energy    TOTEN  =      -399.75424638 eV

  energy without entropy =     -399.75424638  energy(sigma->0) =     -399.75424638


--------------------------------------------------------------------------------------------------------




--------------------------------------- Iteration      1(   4)  ---------------------------------------


     EDDAV:  cpu time  263.4165: real time  265.7640
       DOS:  cpu time    0.0020: real time    0.0020
    --------------------------------------------
      LOOP:  cpu time  263.4186: real time  265.7661

 eigenvalue-minimisations  : 41064
 total energy-change (2. order) :-0.1905661E+03  (-0.1884104E+03)
 number of electron     768.0000015 magnetization      96.0009074
 augmentation part      768.0000015 magnetization      96.0009074

 Free energy of the ion-electron system (eV)
  ---------------------------------------------------
  alpha Z        PSCENC =      1915.67052055
  Ewald energy   TEWEN  =    -48532.26043541
  -Hartree energ DENC   =    -28983.29785898
  -exchange      EXHF   =         0.00000000
  -V(xc)+E(xc)   XCENC  =      3297.26480696
  PAW double counting   =     81710.32686745   -84426.12035439
  entropy T*S    EENTRO =        -0.00000000
  eigenvalues    EBANDS =    -11303.86764775
  atomic energy  EATOM  =     85731.96378919
  Solvation  Ediel_sol  =         0.00000000
  ---------------------------------------------------
  free energy    TOTEN  =      -590.32031236 eV

  energy without entropy =     -590.32031236  energy(sigma->0) =     -590.32031236


--------------------------------------------------------------------------------------------------------




--------------------------------------- Iteration      1(   5)  ---------------------------------------


     EDDAV:  cpu time  331.6421: real time  334.4240
       DOS:  cpu time    0.0021: real time    0.0022
    CHARGE:  cpu time    5.5712: real time    5.5960
    MIXING:  cpu time    0.0289: real time    0.0366
    --------------------------------------------
      LOOP:  cpu time  337.2443: real time  340.0588

 eigenvalue-minimisations  : 54440
 total energy-change (2. order) :-0.2512462E+02  (-0.2488703E+02)
 number of electron     768.0000015 magnetization      96.0005841
 augmentation part      246.8379621 magnetization      62.9174551

 Broyden mixing:
  rms(total) = 0.28012E+00    rms(broyden)= 0.27997E+00
  rms(prec ) = 0.28437E+00
  weight for this iteration     100.00

 Free energy of the ion-electron system (eV)
  ---------------------------------------------------
  alpha Z        PSCENC =      1915.67052055
  Ewald energy   TEWEN  =    -48532.26043541
  -Hartree energ DENC   =    -28983.29785898
  -exchange      EXHF   =         0.00000000
  -V(xc)+E(xc)   XCENC  =      3297.26480696
  PAW double counting   =     81710.32686745   -84426.12035439
  entropy T*S    EENTRO =        -0.00000000
  eigenvalues    EBANDS =    -11328.99226491
  atomic energy  EATOM  =     85731.96378919
  Solvation  Ediel_sol  =         0.00000000
  ---------------------------------------------------
  free energy    TOTEN  =      -615.44492953 eV

  energy without entropy =     -615.44492953  energy(sigma->0) =     -615.44492953


--------------------------------------------------------------------------------------------------------




--------------------------------------- Iteration      1(   6)  ---------------------------------------


    POTLOK:  cpu time    0.4791: real time    0.4819
    SETDIJ:  cpu time    1.3691: real time    1.4701
     EDDAV:  cpu time  270.0063: real time  272.3180
       DOS:  cpu time    0.0021: real time    0.0021
    CHARGE:  cpu time    5.6277: real time    5.6320
    MIXING:  cpu time    0.0817: real time    0.0823
    --------------------------------------------
      LOOP:  cpu time  277.5661: real time  279.9864

 eigenvalue-minimisations  : 42288
 total energy-change (2. order) :-0.9413616E+00  (-0.9698198E+00)
 number of electron     768.0000015 magnetization      96.0004368
 augmentation part      245.7287256 magnetization      63.0579374

 Broyden mixing:
  rms(total) = 0.12057E+00    rms(broyden)= 0.12043E+00
  rms(prec ) = 0.12206E+00
  weight for this iteration     100.00

 eigenvalues of (default mixing * dielectric matrix)
  average eigenvalue GAMMA=   0.6674
  0.6674

 Free energy of the ion-electron system (eV)
  ---------------------------------------------------
  alpha Z        PSCENC =      1915.67052055
  Ewald energy   TEWEN  =    -48532.26043541
  -Hartree energ DENC   =    -28977.21301973
  -exchange      EXHF   =         0.00000000
  -V(xc)+E(xc)   XCENC  =      3296.38984557
  PAW double counting   =     81548.27832971   -84260.18121451
  entropy T*S    EENTRO =        -0.00000000
  eigenvalues    EBANDS =    -11339.03410654
  atomic energy  EATOM  =     85731.96378919
  Solvation  Ediel_sol  =         0.00000000
  ---------------------------------------------------
  free energy    TOTEN  =      -616.38629116 eV

  energy without entropy =     -616.38629116  energy(sigma->0) =     -616.38629116


--------------------------------------------------------------------------------------------------------




--------------------------------------- Iteration      1(   7)  ---------------------------------------


    POTLOK:  cpu time    0.4799: real time    0.4825
    SETDIJ:  cpu time    1.4456: real time    1.4954
     EDDAV:  cpu time  306.0897: real time  308.7664
       DOS:  cpu time    0.0023: real time    0.0047
    CHARGE:  cpu time    5.4890: real time    5.6285
    MIXING:  cpu time    0.0400: real time    0.0431
    --------------------------------------------
      LOOP:  cpu time  313.5465: real time  316.4206

 eigenvalue-minimisations  : 49408
 total energy-change (2. order) :-0.4891875E-01  (-0.4861136E-01)
 number of electron     768.0000015 magnetization      96.0003795
 augmentation part      245.5272943 magnetization      63.0165189

 Broyden mixing:
  rms(total) = 0.84014E-01    rms(broyden)= 0.83959E-01
  rms(prec ) = 0.85676E-01
  weight for this iteration     100.00

 eigenvalues of (default mixing * dielectric matrix)
  average eigenvalue GAMMA=   0.5819
  0.5819  0.5819

 Free energy of the ion-electron system (eV)
  ---------------------------------------------------
  alpha Z        PSCENC =      1915.67052055
  Ewald energy   TEWEN  =    -48532.26043541
  -Hartree energ DENC   =    -28979.16923372
  -exchange      EXHF   =         0.00000000
  -V(xc)+E(xc)   XCENC  =      3296.64306170
  PAW double counting   =     81588.31810002   -84301.14546189
  entropy T*S    EENTRO =        -0.00000000
  eigenvalues    EBANDS =    -11336.45555036
  atomic energy  EATOM  =     85731.96378919
  Solvation  Ediel_sol  =         0.00000000
  ---------------------------------------------------
  free energy    TOTEN  =      -616.43520991 eV

  energy without entropy =     -616.43520991  energy(sigma->0) =     -616.43520991


--------------------------------------------------------------------------------------------------------




--------------------------------------- Iteration      1(   8)  ---------------------------------------


    POTLOK:  cpu time    0.4885: real time    0.4965
    SETDIJ:  cpu time    1.4683: real time    1.4964
     EDDAV:  cpu time  295.2820: real time  297.8501
       DOS:  cpu time    0.0024: real time    0.0024
    CHARGE:  cpu time    5.5678: real time    5.6161
    MIXING:  cpu time    0.0398: real time    0.0451
    --------------------------------------------
      LOOP:  cpu time  302.8487: real time  305.5065

 eigenvalue-minimisations  : 47312
 total energy-change (2. order) :-0.1834042E-03  (-0.1773750E-02)
 number of electron     768.0000015 magnetization      96.0003526
 augmentation part      245.4886581 magnetization      63.0145585

 Broyden mixing:
  rms(total) = 0.72949E-01    rms(broyden)= 0.72944E-01
  rms(prec ) = 0.74495E-01
  weight for this iteration     100.00

 eigenvalues of (default mixing * dielectric matrix)
  average eigenvalue GAMMA=   0.5425
  0.6164  0.6164  0.3947

 Free energy of the ion-electron system (eV)
  ---------------------------------------------------
  alpha Z        PSCENC =      1915.67052055
  Ewald energy   TEWEN  =    -48532.26043541
  -Hartree energ DENC   =    -28979.92257205
  -exchange      EXHF   =         0.00000000
  -V(xc)+E(xc)   XCENC  =      3296.74542181
  PAW double counting   =     81609.14162534   -84322.51849982
  entropy T*S    EENTRO =        -0.00000000
  eigenvalues    EBANDS =    -11335.25524295
  atomic energy  EATOM  =     85731.96378919
  Solvation  Ediel_sol  =         0.00000000
  ---------------------------------------------------
  free energy    TOTEN  =      -616.43539332 eV

  energy without entropy =     -616.43539332  energy(sigma->0) =     -616.43539332


--------------------------------------------------------------------------------------------------------




--------------------------------------- Iteration      1(   9)  ---------------------------------------


    POTLOK:  cpu time    0.5000: real time    0.5028
    SETDIJ:  cpu time    1.4559: real time    1.4924
     EDDAV:  cpu time  305.8035: real time  308.4087
       DOS:  cpu time    0.0023: real time    0.0023
    CHARGE:  cpu time    5.5652: real time    5.6478
    MIXING:  cpu time    0.0440: real time    0.0440
    --------------------------------------------
      LOOP:  cpu time  313.3710: real time  316.0980

 eigenvalue-minimisations  : 49368
 total energy-change (2. order) : 0.6601577E-03  (-0.1050377E-03)
 number of electron     768.0000015 magnetization      96.0003240
 augmentation part      245.4937307 magnetization      63.0122319

 Broyden mixing:
  rms(total) = 0.66346E-01    rms(broyden)= 0.66346E-01
  rms(prec ) = 0.67735E-01
  weight for this iteration     100.00

 eigenvalues of (default mixing * dielectric matrix)
  average eigenvalue GAMMA=   0.5079
  0.6291  0.6291  0.3867  0.3867

 Free energy of the ion-electron system (eV)
  ---------------------------------------------------
  alpha Z        PSCENC =      1915.67052055
  Ewald energy   TEWEN  =    -48532.26043541
  -Hartree energ DENC   =    -28980.12626348
  -exchange      EXHF   =         0.00000000
  -V(xc)+E(xc)   XCENC  =      3296.79261760
  PAW double counting   =     81616.82028928   -84330.42624918
  entropy T*S    EENTRO =        -0.00000000
  eigenvalues    EBANDS =    -11334.86900172
  atomic energy  EATOM  =     85731.96378919
  Solvation  Ediel_sol  =         0.00000000
  ---------------------------------------------------
  free energy    TOTEN  =      -616.43473316 eV

  energy without entropy =     -616.43473316  energy(sigma->0) =     -616.43473316


--------------------------------------------------------------------------------------------------------




--------------------------------------- Iteration      1(  10)  ---------------------------------------


    POTLOK:  cpu time    0.4874: real time    0.4894
    SETDIJ:  cpu time    1.4960: real time    1.4979
     EDDAV:  cpu time  339.5841: real time  342.2766
       DOS:  cpu time    0.0024: real time    0.0024
    CHARGE:  cpu time    5.6217: real time    5.6256
    MIXING:  cpu time    0.0308: real time    0.0308
    --------------------------------------------
      LOOP:  cpu time  347.2224: real time  349.9227

 eigenvalue-minimisations  : 56248
 total energy-change (2. order) : 0.5906396E-03  (-0.1767354E-04)
 number of electron     768.0000015 magnetization      96.0001475
 augmentation part      245.5004733 magnetization      63.0112539

 Broyden mixing:
  rms(total) = 0.59865E-01    rms(broyden)= 0.59865E-01
  rms(prec ) = 0.61059E-01
  weight for this iteration     100.00

 eigenvalues of (default mixing * dielectric matrix)
  average eigenvalue GAMMA=   0.8176
  1.2259  1.2259  0.5849  0.5849  0.4665

 Free energy of the ion-electron system (eV)
  ---------------------------------------------------
  alpha Z        PSCENC =      1915.67052055
  Ewald energy   TEWEN  =    -48532.26043541
  -Hartree energ DENC   =    -28980.46194037
  -exchange      EXHF   =         0.00000000
  -V(xc)+E(xc)   XCENC  =      3296.84667159
  PAW double counting   =     81624.74663729   -84338.59073953
  entropy T*S    EENTRO =        -0.00000000
  eigenvalues    EBANDS =    -11334.34864584
  atomic energy  EATOM  =     85731.96378919
  Solvation  Ediel_sol  =         0.00000000
  ---------------------------------------------------
  free energy    TOTEN  =      -616.43414252 eV

  energy without entropy =     -616.43414252  energy(sigma->0) =     -616.43414252


--------------------------------------------------------------------------------------------------------




--------------------------------------- Iteration      1(  11)  ---------------------------------------


    POTLOK:  cpu time    0.4785: real time    0.4810
    SETDIJ:  cpu time    1.3699: real time    1.4696
     EDDAV:  cpu time  329.9922: real time  332.5493
       DOS:  cpu time    0.0020: real time    0.0020
    CHARGE:  cpu time    5.5453: real time    5.6364
    MIXING:  cpu time    0.0302: real time    0.0324
    --------------------------------------------
      LOOP:  cpu time  337.4181: real time  340.1707

 eigenvalue-minimisations  : 54144
 total energy-change (2. order) : 0.1993116E-02  (-0.1335831E-03)
 number of electron     768.0000015 magnetization      96.0001241
 augmentation part      245.5216837 magnetization      63.0125078

 Broyden mixing:
  rms(total) = 0.23210E-01    rms(broyden)= 0.23209E-01
  rms(prec ) = 0.23483E-01
  weight for this iteration     100.00

 eigenvalues of (default mixing * dielectric matrix)
  average eigenvalue GAMMA=   0.7952
  1.3119  1.3119  0.6084  0.6084  0.4653  0.4653

 Free energy of the ion-electron system (eV)
  ---------------------------------------------------
  alpha Z        PSCENC =      1915.67052055
  Ewald energy   TEWEN  =    -48532.26043541
  -Hartree energ DENC   =    -28982.41612126
  -exchange      EXHF   =         0.00000000
  -V(xc)+E(xc)   XCENC  =      3297.14958561
  PAW double counting   =     81674.44237315   -84389.67201719
  entropy T*S    EENTRO =        -0.00000000
  eigenvalues    EBANDS =    -11331.30984405
  atomic energy  EATOM  =     85731.96378919
  Solvation  Ediel_sol  =         0.00000000
  ---------------------------------------------------
  free energy    TOTEN  =      -616.43214940 eV

  energy without entropy =     -616.43214940  energy(sigma->0) =     -616.43214940


--------------------------------------------------------------------------------------------------------




--------------------------------------- Iteration      1(  12)  ---------------------------------------


    POTLOK:  cpu time    0.4854: real time    0.4969
    SETDIJ:  cpu time    1.4088: real time    1.4569
     EDDAV:  cpu time  236.9731: real time  239.3364
       DOS:  cpu time    0.0021: real time    0.0021
    CHARGE:  cpu time    5.5739: real time    5.5799
    MIXING:  cpu time    0.0239: real time    0.1559
    --------------------------------------------
      LOOP:  cpu time  244.4672: real time  247.0281

 eigenvalue-minimisations  : 35624
 total energy-change (2. order) :-0.1898929E-04  (-0.8376424E-04)
 number of electron     768.0000015 magnetization      96.0000965
 augmentation part      245.5340142 magnetization      63.0105159

 Broyden mixing:
  rms(total) = 0.18870E-01    rms(broyden)= 0.18869E-01
  rms(prec ) = 0.19025E-01
  weight for this iteration     100.00

 eigenvalues of (default mixing * dielectric matrix)
  average eigenvalue GAMMA=   0.8480
  1.4633  1.4633  0.7550  0.7550  0.5204  0.5204  0.4587

 Free energy of the ion-electron system (eV)
  ---------------------------------------------------
  alpha Z        PSCENC =      1915.67052055
  Ewald energy   TEWEN  =    -48532.26043541
  -Hartree energ DENC   =    -28982.63924506
  -exchange      EXHF   =         0.00000000
  -V(xc)+E(xc)   XCENC  =      3297.17724816
  PAW double counting   =     81680.35396935   -84395.71210038
  entropy T*S    EENTRO =        -0.00000000
  eigenvalues    EBANDS =    -11330.98591480
  atomic energy  EATOM  =     85731.96378919
  Solvation  Ediel_sol  =         0.00000000
  ---------------------------------------------------
  free energy    TOTEN  =      -616.43216839 eV

  energy without entropy =     -616.43216839  energy(sigma->0) =     -616.43216839


--------------------------------------------------------------------------------------------------------




--------------------------------------- Iteration      1(  13)  ---------------------------------------


    POTLOK:  cpu time    0.4830: real time    0.4856
    SETDIJ:  cpu time    1.4616: real time    1.4620
     EDDAV:  cpu time  266.6836: real time  269.0615
       DOS:  cpu time    0.0020: real time    0.0020
    CHARGE:  cpu time    5.5663: real time    5.6229
    MIXING:  cpu time    0.0283: real time    0.0308
    --------------------------------------------
      LOOP:  cpu time  274.2247: real time  276.6649

 eigenvalue-minimisations  : 41696
 total energy-change (2. order) : 0.3707160E-04  (-0.4942747E-05)
 number of electron     768.0000015 magnetization      96.0000806
 augmentation part      245.5363592 magnetization      63.0105156

 Broyden mixing:
  rms(total) = 0.14287E-01    rms(broyden)= 0.14286E-01
  rms(prec ) = 0.14391E-01
  weight for this iteration     100.00

 eigenvalues of (default mixing * dielectric matrix)
  average eigenvalue GAMMA=   0.8846
  1.6780  1.6780  0.8585  0.8585  0.5423  0.5423  0.4595  0.4595

 Free energy of the ion-electron system (eV)
  ---------------------------------------------------
  alpha Z        PSCENC =      1915.67052055
  Ewald energy   TEWEN  =    -48532.26043541
  -Hartree energ DENC   =    -28982.80898544
  -exchange      EXHF   =         0.00000000
  -V(xc)+E(xc)   XCENC  =      3297.20462101
  PAW double counting   =     81687.23958108   -84402.72338233
  entropy T*S    EENTRO =        -0.00000000
  eigenvalues    EBANDS =    -11330.71783998
  atomic energy  EATOM  =     85731.96378919
  Solvation  Ediel_sol  =         0.00000000
  ---------------------------------------------------
  free energy    TOTEN  =      -616.43213132 eV

  energy without entropy =     -616.43213132  energy(sigma->0) =     -616.43213132


--------------------------------------------------------------------------------------------------------




--------------------------------------- Iteration      1(  14)  ---------------------------------------


    POTLOK:  cpu time    0.4832: real time    0.4893
    SETDIJ:  cpu time    1.4600: real time    1.4638
     EDDAV:  cpu time  266.9781: real time  269.3509
       DOS:  cpu time    0.0024: real time    0.0028
    CHARGE:  cpu time    5.6213: real time    5.6266
    MIXING:  cpu time    0.0483: real time    0.0531
    --------------------------------------------
      LOOP:  cpu time  274.5934: real time  276.9865

 eigenvalue-minimisations  : 41736
 total energy-change (2. order) :-0.1146435E-04  (-0.1762570E-05)
 number of electron     768.0000015 magnetization      96.0000183
 augmentation part      245.5386258 magnetization      63.0105900

 Broyden mixing:
  rms(total) = 0.12257E-01    rms(broyden)= 0.12256E-01
  rms(prec ) = 0.12370E-01
  weight for this iteration     100.00

 eigenvalues of (default mixing * dielectric matrix)
  average eigenvalue GAMMA=   1.1241
  2.5618  2.5618  1.0240  1.0240  0.7103  0.7103  0.5250  0.5250  0.4748

 Free energy of the ion-electron system (eV)
  ---------------------------------------------------
  alpha Z        PSCENC =      1915.67052055
  Ewald energy   TEWEN  =    -48532.26043541
  -Hartree energ DENC   =    -28982.82711577
  -exchange      EXHF   =         0.00000000
  -V(xc)+E(xc)   XCENC  =      3297.20348651
  PAW double counting   =     81690.55899805   -84406.03557496
  entropy T*S    EENTRO =        -0.00000000
  eigenvalues    EBANDS =    -11330.70581096
  atomic energy  EATOM  =     85731.96378919
  Solvation  Ediel_sol  =         0.00000000
  ---------------------------------------------------
  free energy    TOTEN  =      -616.43214279 eV

  energy without entropy =     -616.43214279  energy(sigma->0) =     -616.43214279


--------------------------------------------------------------------------------------------------------




--------------------------------------- Iteration      1(  15)  ---------------------------------------


    POTLOK:  cpu time    0.4823: real time    0.4839
    SETDIJ:  cpu time    1.3977: real time    1.4965
     EDDAV:  cpu time  237.0851: real time  239.0255
       DOS:  cpu time    0.0020: real time    0.0020
    CHARGE:  cpu time    5.5814: real time    5.5846
    MIXING:  cpu time    0.0322: real time    0.0322
    --------------------------------------------
      LOOP:  cpu time  244.5807: real time  246.6247

 eigenvalue-minimisations  : 35920
 total energy-change (2. order) : 0.2921715E-04  (-0.2264074E-05)
 number of electron     768.0000015 magnetization      96.0000073
 augmentation part      245.5395124 magnetization      63.0107237

 Broyden mixing:
  rms(total) = 0.28423E-02    rms(broyden)= 0.28390E-02
  rms(prec ) = 0.29007E-02
  weight for this iteration     100.00

 eigenvalues of (default mixing * dielectric matrix)
  average eigenvalue GAMMA=   1.0726
  2.4002  2.4002  1.1377  1.1377  0.7714  0.7714  0.5508  0.5508  0.5029  0.5029

 Free energy of the ion-electron system (eV)
  ---------------------------------------------------
  alpha Z        PSCENC =      1915.67052055
  Ewald energy   TEWEN  =    -48532.26043541
  -Hartree energ DENC   =    -28983.20254637
  -exchange      EXHF   =         0.00000000
  -V(xc)+E(xc)   XCENC  =      3297.24831516
  PAW double counting   =     81705.72496791   -84421.41354210
  entropy T*S    EENTRO =        -0.00000000
  eigenvalues    EBANDS =    -11330.16318251
  atomic energy  EATOM  =     85731.96378919
  Solvation  Ediel_sol  =         0.00000000
  ---------------------------------------------------
  free energy    TOTEN  =      -616.43211357 eV

  energy without entropy =     -616.43211357  energy(sigma->0) =     -616.43211357


--------------------------------------------------------------------------------------------------------




--------------------------------------- Iteration      1(  16)  ---------------------------------------


    POTLOK:  cpu time    0.4813: real time    0.4819
    SETDIJ:  cpu time    1.4703: real time    1.4709
     EDDAV:  cpu time  227.6233: real time  229.3940
       DOS:  cpu time    0.0023: real time    0.0023
    CHARGE:  cpu time    5.6649: real time    5.6697
    MIXING:  cpu time    0.0506: real time    0.0578
    --------------------------------------------
      LOOP:  cpu time  235.2926: real time  237.0765

 eigenvalue-minimisations  : 34248
 total energy-change (2. order) : 0.2604836E-05  (-0.3619770E-05)
 number of electron     768.0000015 magnetization      96.0000055
 augmentation part      245.5416177 magnetization      63.0105259

 Broyden mixing:
  rms(total) = 0.94688E-03    rms(broyden)= 0.93696E-03
  rms(prec ) = 0.94459E-03
  weight for this iteration     100.00

 eigenvalues of (default mixing * dielectric matrix)
  average eigenvalue GAMMA=   1.0494
  2.3429  2.3429  1.2419  1.2419  0.8245  0.8245  0.6199  0.6199  0.5195  0.5195
  0.4462

 Free energy of the ion-electron system (eV)
  ---------------------------------------------------
  alpha Z        PSCENC =      1915.67052055
  Ewald energy   TEWEN  =    -48532.26043541
  -Hartree energ DENC   =    -28983.33789616
  -exchange      EXHF   =         0.00000000
  -V(xc)+E(xc)   XCENC  =      3297.26686843
  PAW double counting   =     81708.66294096   -84424.44043246
  entropy T*S    EENTRO =        -0.00000000
  eigenvalues    EBANDS =    -11329.95746608
  atomic energy  EATOM  =     85731.96378919
  Solvation  Ediel_sol  =         0.00000000
  ---------------------------------------------------
  free energy    TOTEN  =      -616.43211096 eV

  energy without entropy =     -616.43211096  energy(sigma->0) =     -616.43211096


--------------------------------------------------------------------------------------------------------




--------------------------------------- Iteration      1(  17)  ---------------------------------------


    POTLOK:  cpu time    0.4818: real time    0.4826
    SETDIJ:  cpu time    1.4697: real time    1.5101
     EDDAV:  cpu time  233.0344: real time  235.2680
       DOS:  cpu time    0.0021: real time    0.0021
    CHARGE:  cpu time    5.6230: real time    5.6273
    MIXING:  cpu time    0.0387: real time    0.0387
    --------------------------------------------
      LOOP:  cpu time  240.6498: real time  242.9289

 eigenvalue-minimisations  : 35096
 total energy-change (2. order) :-0.1098291E-05  (-0.6538793E-06)
 number of electron     768.0000015 magnetization      96.0000034
 augmentation part      245.5430280 magnetization      63.0105699

 Broyden mixing:
  rms(total) = 0.78510E-03    rms(broyden)= 0.77319E-03
  rms(prec ) = 0.78159E-03
  weight for this iteration     100.00

 eigenvalues of (default mixing * dielectric matrix)
  average eigenvalue GAMMA=   1.0563
  2.5694  2.5694  1.2466  1.2466  0.8432  0.8432  0.6691  0.6691  0.5237  0.5237
  0.4861  0.4861

 Free energy of the ion-electron system (eV)
  ---------------------------------------------------
  alpha Z        PSCENC =      1915.67052055
  Ewald energy   TEWEN  =    -48532.26043541
  -Hartree energ DENC   =    -28983.33245058
  -exchange      EXHF   =         0.00000000
  -V(xc)+E(xc)   XCENC  =      3297.26636805
  PAW double counting   =     81709.05248750   -84424.83110938
  entropy T*S    EENTRO =        -0.00000000
  eigenvalues    EBANDS =    -11329.96128200
  atomic energy  EATOM  =     85731.96378919
  Solvation  Ediel_sol  =         0.00000000
  ---------------------------------------------------
  free energy    TOTEN  =      -616.43211206 eV

  energy without entropy =     -616.43211206  energy(sigma->0) =     -616.43211206


--------------------------------------------------------------------------------------------------------




--------------------------------------- Iteration      1(  18)  ---------------------------------------


    POTLOK:  cpu time    0.4818: real time    0.4826
    SETDIJ:  cpu time    1.4632: real time    1.4644
     EDDAV:  cpu time  148.1714: real time  149.4913
       DOS:  cpu time    0.0021: real time    0.0021
    CHARGE:  cpu time    5.5786: real time    5.5968
    MIXING:  cpu time    0.0401: real time    0.0401
    --------------------------------------------
      LOOP:  cpu time  155.7372: real time  157.0773

 eigenvalue-minimisations  : 18640
 total energy-change (2. order) :-0.1695706E-05  (-0.3288370E-07)
 number of electron     768.0000015 magnetization      95.9999992
 augmentation part      245.5429699 magnetization      63.0105833

 Broyden mixing:
  rms(total) = 0.54795E-03    rms(broyden)= 0.53110E-03
  rms(prec ) = 0.53957E-03
  weight for this iteration     100.00

 eigenvalues of (default mixing * dielectric matrix)
  average eigenvalue GAMMA=   1.1114
  3.3385  1.6269  1.6269  1.3804  1.3804  0.7944  0.7944  0.7170  0.7170  0.5521
  0.5521  0.5087  0.4598

 Free energy of the ion-electron system (eV)
  ---------------------------------------------------
  alpha Z        PSCENC =      1915.67052055
  Ewald energy   TEWEN  =    -48532.26043541
  -Hartree energ DENC   =    -28983.31834612
  -exchange      EXHF   =         0.00000000
  -V(xc)+E(xc)   XCENC  =      3297.26388892
  PAW double counting   =     81709.40368358   -84425.17772329
  entropy T*S    EENTRO =        -0.00000000
  eigenvalues    EBANDS =    -11329.97749119
  atomic energy  EATOM  =     85731.96378919
  Solvation  Ediel_sol  =         0.00000000
  ---------------------------------------------------
  free energy    TOTEN  =      -616.43211376 eV

  energy without entropy =     -616.43211376  energy(sigma->0) =     -616.43211376


--------------------------------------------------------------------------------------------------------




--------------------------------------- Iteration      1(  19)  ---------------------------------------


    POTLOK:  cpu time    0.4808: real time    0.4814
    SETDIJ:  cpu time    1.4613: real time    1.4685
     EDDAV:  cpu time  146.8660: real time  148.5480
       DOS:  cpu time    0.0021: real time    0.0021
    CHARGE:  cpu time    5.5390: real time    5.5996
    MIXING:  cpu time    0.0395: real time    0.0433
    --------------------------------------------
      LOOP:  cpu time  154.3886: real time  156.1430

 eigenvalue-minimisations  : 18384
 total energy-change (2. order) :-0.1609238E-05  (-0.2534469E-07)
 number of electron     768.0000015 magnetization      95.9999988
 augmentation part      245.5429436 magnetization      63.0105791

 Broyden mixing:
  rms(total) = 0.30704E-03    rms(broyden)= 0.27580E-03
  rms(prec ) = 0.28644E-03
  weight for this iteration     100.00
  WARNING: grid for Broyden might be to small

 eigenvalues of (default mixing * dielectric matrix)
  average eigenvalue GAMMA=   1.1695
  4.0224  2.0859  2.0859  1.2466  1.2466  0.8257  0.8257  0.7050  0.7050  0.5797
  0.5797  0.5027  0.5027  0.4598

 Free energy of the ion-electron system (eV)
  ---------------------------------------------------
  alpha Z        PSCENC =      1915.67052055
  Ewald energy   TEWEN  =    -48532.26043541
  -Hartree energ DENC   =    -28983.32436435
  -exchange      EXHF   =         0.00000000
  -V(xc)+E(xc)   XCENC  =      3297.26523664
  PAW double counting   =     81710.35951697   -84426.15109944
  entropy T*S    EENTRO =        -0.00000000
  eigenvalues    EBANDS =    -11329.95527953
  atomic energy  EATOM  =     85731.96378919
  Solvation  Ediel_sol  =         0.00000000
  ---------------------------------------------------
  free energy    TOTEN  =      -616.43211537 eV

  energy without entropy =     -616.43211537  energy(sigma->0) =     -616.43211537


--------------------------------------------------------------------------------------------------------




--------------------------------------- Iteration      1(  20)  ---------------------------------------


    POTLOK:  cpu time    0.4834: real time    0.4950
    SETDIJ:  cpu time    1.4268: real time    1.4465
     EDDAV:  cpu time  149.4310: real time  150.8443
       DOS:  cpu time    0.0027: real time    0.0028
    --------------------------------------------
      LOOP:  cpu time  151.3439: real time  152.7886

 eigenvalue-minimisations  : 19160
 total energy-change (2. order) :-0.9345240E-07  (-0.4154827E-07)
 number of electron     768.0000015 magnetization      95.9999988
 augmentation part      245.5429436 magnetization      63.0105791

 Free energy of the ion-electron system (eV)
  ---------------------------------------------------
  alpha Z        PSCENC =      1915.67052055
  Ewald energy   TEWEN  =    -48532.26043541
  -Hartree energ DENC   =    -28983.32764279
  -exchange      EXHF   =         0.00000000
  -V(xc)+E(xc)   XCENC  =      3297.26630197
  PAW double counting   =     81710.50846005   -84426.30857351
  entropy T*S    EENTRO =        -0.00000000
  eigenvalues    EBANDS =    -11329.94453552
  atomic energy  EATOM  =     85731.96378919
  Solvation  Ediel_sol  =         0.00000000
  ---------------------------------------------------
  free energy    TOTEN  =      -616.43211546 eV

  energy without entropy =     -616.43211546  energy(sigma->0) =     -616.43211546


--------------------------------------------------------------------------------------------------------




 average (electrostatic) potential at core
  the test charge radii are     0.7079  0.7215  0.9698  0.9500
  (the norm of the test charge is              1.0000)
       1 -59.3718       2 -59.4098       3 -59.3910       4 -59.3893       5 -59.3925
       6 -59.3909       7 -59.3893       8 -59.3926       9 -59.3910      10 -59.3904
      11 -59.3914      12 -59.3910      13 -59.3899      14 -59.3920      15 -59.3911
      16 -59.3897      17 -59.3919      18 -59.3909      19 -59.3896      20 -59.3919
      21 -59.3909      22 -59.3898      23 -59.3920      24 -59.3909      25 -59.5930
      26 -59.5943      27 -59.5920      28 -59.5933      29 -59.5941      30 -59.5922
      31 -59.5933      32 -59.5940      33 -59.5924      34 -59.5931      35 -59.5936
      36 -59.5926      37 -59.5932      38 -59.5941      39 -59.5921      40 -59.5933
      41 -59.5940      42 -59.5922      43 -59.5932      44 -59.5945      45 -59.5920
      46 -59.5931      47 -59.5934      48 -59.5926      49 -70.1768      50 -70.1788
      51 -70.1750      52 -70.1769      53 -70.1781      54 -70.1757      55 -70.1769
      56 -70.1780      57 -70.1758      58 -70.1769      59 -70.1772      60 -70.1766
      61 -70.1769      62 -70.1775      63 -70.1763      64 -70.1769      65 -70.1775
      66 -70.1763      67 -70.1769      68 -70.1778      69 -70.1760      70 -70.1769
      71 -70.1778      72 -70.1760      73 -86.0016      74 -86.0066      75 -86.0041
      76 -86.0036      77 -86.0046      78 -86.0041      79 -86.0004      80 -86.0078
      81 -86.0041      82 -86.0034      83 -86.0048      84 -86.0041      85 -86.0011
      86 -86.0071      87 -86.0041      88 -86.0011      89 -86.0071      90 -86.0041
      91 -86.0035      92 -86.0047      93 -86.0041      94 -86.0035      95 -86.0047
      96 -86.0041      97 -79.0585      98 -79.0596      99 -79.0573     100 -79.0585
     101 -79.0597     102 -79.0572     103 -79.0585     104 -79.0588     105 -79.0581
     106 -79.0585     107 -79.0592     108 -79.0577     109 -79.0585     110 -79.0594
     111 -79.0575     112 -79.0585     113 -79.0588     114 -79.0581     115 -79.0585
     116 -79.0597     117 -79.0572     118 -79.0585     119 -79.0593     120 -79.0576
 
 
 
 E-fermi :   4.4012     XC(G=0): -10.1825     alpha+bet :-12.6708


 spin component 1

 k-point     1 :       0.0000    0.0000    0.0000
  band No.  band energies     occupation 
      1     -51.4832      1.00000
      2     -51.4826      1.00000
      3     -51.4820      1.00000
      4     -51.4820      1.00000
      5     -51.4814      1.00000
      6     -51.4808      1.00000
      7     -51.4676      1.00000
      8     -51.4674      1.00000
      9     -51.4670      1.00000
     10     -51.4669      1.00000
     11     -51.4664      1.00000
     12     -51.4664      1.00000
     13     -51.4663      1.00000
     14     -51.4663      1.00000
     15     -51.4658      1.00000
     16     -51.4657      1.00000
     17     -51.4653      1.00000
     18     -51.4651      1.00000
     19     -51.4520      1.00000
     20     -51.4514      1.00000
     21     -51.4508      1.00000
     22     -51.4508      1.00000
     23     -51.4502      1.00000
     24     -51.4496      1.00000
     25     -50.2024      1.00000
     26     -50.2020      1.00000
     27     -50.2013      1.00000
     28     -50.2013      1.00000
     29     -50.2006      1.00000
     30     -50.2001      1.00000
     31     -50.1998      1.00000
     32     -50.1997      1.00000
     33     -50.1993      1.00000
     34     -50.1992      1.00000
     35     -50.1986      1.00000
     36     -50.1986      1.00000
     37     -50.1986      1.00000
     38     -50.1986      1.00000
     39     -50.1979      1.00000
     40     -50.1978      1.00000
     41     -50.1975      1.00000
     42     -50.1973      1.00000
     43     -50.1970      1.00000
     44     -50.1965      1.00000
     45     -50.1959      1.00000
     46     -50.1959      1.00000
     47     -50.1952      1.00000
     48     -50.1947      1.00000
     49     -50.0079      1.00000
     50     -50.0074      1.00000
     51     -50.0068      1.00000
     52     -50.0068      1.00000
     53     -50.0062      1.00000
     54     -50.0056      1.00000
     55     -49.9918      1.00000
     56     -49.9916      1.00000
     57     -49.9912      1.00000
     58     -49.9911      1.00000
     59     -49.9906      1.00000
     60     -49.9906      1.00000
     61     -49.9905      1.00000
     62     -49.9905      1.00000
     63     -49.9900      1.00000
     64     -49.9899      1.00000
     65     -49.9895      1.00000
     66     -49.9893      1.00000
     67     -49.9752      1.00000
     68     -49.9746      1.00000
     69     -49.9740      1.00000
     70     -49.9740      1.00000
     71     -49.9734      1.00000
     72     -49.9729      1.00000
     73     -40.5237      1.00000
     74     -40.5236      1.00000
     75     -40.5213      1.00000
     76     -40.5212      1.00000
     77     -40.5204      1.00000
     78     -40.5202      1.00000
     79     -40.5146      1.00000
     80     -40.5145      1.00000
     81     -40.5144      1.00000
     82     -40.5144      1.00000
     83     -40.5131      1.00000
     84     -40.5130      1.00000
[...]
   0.202E+00 0.306E+02 -.266E+03   -.209E+00 -.320E+02 0.274E+03   0.647E-02 0.140E+01 -.824E+01   0.591E-04 -.108E-04 0.802E-04
   0.846E-01 0.305E+02 -.266E+03   -.969E-01 -.319E+02 0.274E+03   0.136E-01 0.140E+01 -.824E+01   -.524E-04 -.228E-04 0.499E-04
   0.202E+00 0.306E+02 -.266E+03   -.209E+00 -.320E+02 0.274E+03   0.664E-02 0.140E+01 -.824E+01   0.859E-05 -.415E-05 0.597E-04
   0.201E+00 0.305E+02 -.266E+03   -.209E+00 -.319E+02 0.274E+03   0.647E-02 0.140E+01 -.824E+01   0.445E-04 -.995E-05 0.517E-04
   0.852E-01 0.305E+02 -.266E+03   -.993E-01 -.319E+02 0.274E+03   0.159E-01 0.140E+01 -.824E+01   0.823E-04 -.208E-04 0.729E-04
   0.201E+00 0.305E+02 -.266E+03   -.208E+00 -.319E+02 0.274E+03   0.610E-02 0.140E+01 -.824E+01   -.190E-04 -.328E-04 0.879E-04
   0.201E+00 0.306E+02 -.266E+03   -.208E+00 -.320E+02 0.274E+03   0.589E-02 0.140E+01 -.824E+01   0.564E-04 -.124E-04 0.587E-04
   0.854E-01 0.305E+02 -.266E+03   -.993E-01 -.319E+02 0.274E+03   0.158E-01 0.140E+01 -.824E+01   0.876E-04 0.492E-05 0.668E-04
   0.201E+00 0.306E+02 -.266E+03   -.208E+00 -.320E+02 0.274E+03   0.603E-02 0.140E+01 -.824E+01   0.970E-06 -.926E-05 0.651E-04
   0.201E+00 0.305E+02 -.266E+03   -.208E+00 -.319E+02 0.274E+03   0.588E-02 0.140E+01 -.824E+01   0.205E-04 0.236E-05 0.354E-04
   -.112E+00 -.245E+02 -.149E+03   0.116E+00 0.251E+02 0.150E+03   -.623E-02 -.545E+00 -.116E+01   -.824E-05 0.918E-06 0.662E-04
   -.111E+00 -.245E+02 -.149E+03   0.115E+00 0.251E+02 0.150E+03   -.627E-02 -.546E+00 -.113E+01   -.153E-04 0.720E-06 0.390E-04
   -.562E-01 -.245E+02 -.149E+03   0.603E-01 0.251E+02 0.150E+03   -.556E-02 -.546E+00 -.114E+01   0.293E-04 0.559E-05 0.521E-04
   -.133E+00 -.245E+02 -.149E+03   0.135E+00 0.251E+02 0.150E+03   -.245E-02 -.546E+00 -.115E+01   -.168E-04 -.552E-05 0.670E-04
   -.133E+00 -.245E+02 -.149E+03   0.135E+00 0.251E+02 0.150E+03   -.248E-02 -.546E+00 -.114E+01   -.193E-05 -.541E-05 0.397E-04
   -.967E-01 -.245E+02 -.149E+03   0.100E+00 0.251E+02 0.150E+03   -.405E-02 -.546E+00 -.114E+01   0.233E-04 -.111E-04 0.559E-04
   -.105E+00 -.245E+02 -.149E+03   0.111E+00 0.251E+02 0.151E+03   -.915E-02 -.546E+00 -.113E+01   -.101E-04 -.110E-04 -.296E-05
   -.104E+00 -.245E+02 -.149E+03   0.110E+00 0.251E+02 0.150E+03   -.920E-02 -.545E+00 -.116E+01   -.166E-04 -.819E-05 0.965E-04
   -.542E-01 -.245E+02 -.149E+03   0.587E-01 0.251E+02 0.150E+03   -.621E-02 -.546E+00 -.114E+01   0.322E-04 0.303E-05 0.531E-04
   -.133E+00 -.245E+02 -.149E+03   0.135E+00 0.251E+02 0.150E+03   -.211E-02 -.546E+00 -.114E+01   -.670E-05 0.444E-05 0.408E-04
   -.133E+00 -.245E+02 -.149E+03   0.135E+00 0.251E+02 0.150E+03   -.213E-02 -.546E+00 -.115E+01   -.778E-05 -.288E-05 0.716E-04
   -.960E-01 -.245E+02 -.149E+03   0.997E-01 0.251E+02 0.150E+03   -.473E-02 -.546E+00 -.114E+01   0.110E-04 0.258E-05 0.574E-04
   -.107E+00 -.243E+02 0.149E+03   0.111E+00 0.249E+02 -.150E+03   -.758E-02 -.560E+00 0.114E+01   -.123E-04 0.213E-04 -.638E-04
   -.108E+00 -.247E+02 0.149E+03   0.112E+00 0.252E+02 -.150E+03   -.748E-02 -.532E+00 0.114E+01   -.254E-04 -.307E-04 -.427E-04
   -.547E-01 -.245E+02 0.149E+03   0.591E-01 0.251E+02 -.150E+03   -.605E-02 -.546E+00 0.114E+01   0.419E-04 -.132E-04 -.607E-04
   -.111E+00 -.247E+02 0.149E+03   0.116E+00 0.252E+02 -.150E+03   -.810E-02 -.533E+00 0.115E+01   -.121E-04 -.491E-04 -.689E-04
   -.108E+00 -.243E+02 0.149E+03   0.114E+00 0.249E+02 -.150E+03   -.827E-02 -.558E+00 0.114E+01   -.109E-04 0.256E-04 -.432E-04
   -.560E-01 -.245E+02 0.149E+03   0.603E-01 0.251E+02 -.150E+03   -.584E-02 -.546E+00 0.114E+01   0.238E-04 -.350E-05 -.598E-04
   -.133E+00 -.245E+02 0.149E+03   0.135E+00 0.251E+02 -.150E+03   -.235E-02 -.547E+00 0.114E+01   -.319E-05 0.103E-04 -.507E-04
   -.133E+00 -.245E+02 0.149E+03   0.135E+00 0.251E+02 -.150E+03   -.237E-02 -.544E+00 0.114E+01   -.118E-04 -.209E-04 -.536E-04
   -.962E-01 -.245E+02 0.149E+03   0.996E-01 0.251E+02 -.150E+03   -.432E-02 -.546E+00 0.114E+01   0.125E-04 -.671E-05 -.566E-04
   -.133E+00 -.245E+02 0.149E+03   0.135E+00 0.251E+02 -.150E+03   -.233E-02 -.545E+00 0.114E+01   -.639E-05 -.611E-05 -.454E-04
   -.133E+00 -.245E+02 0.149E+03   0.135E+00 0.251E+02 -.150E+03   -.235E-02 -.547E+00 0.114E+01   -.134E-04 0.514E-05 -.509E-04
   -.964E-01 -.245E+02 0.149E+03   0.999E-01 0.251E+02 -.150E+03   -.427E-02 -.546E+00 0.114E+01   0.162E-04 -.401E-06 -.477E-04
   -.249E+00 -.159E+02 0.822E+02   0.243E+00 0.171E+02 -.834E+02   0.380E-02 -.114E+01 0.122E+01   -.147E-03 -.191E-05 -.223E-04
   0.114E-02 -.160E+02 0.822E+02   0.127E-01 0.172E+02 -.834E+02   -.126E-01 -.114E+01 0.121E+01   0.479E-04 0.513E-06 0.118E-04
   0.141E-02 -.159E+02 0.821E+02   0.124E-01 0.170E+02 -.834E+02   -.127E-01 -.114E+01 0.122E+01   0.169E-03 0.610E-07 -.751E-04
   -.160E+01 -.159E+02 0.822E+02   0.154E+01 0.171E+02 -.834E+02   0.433E-01 -.114E+01 0.122E+01   -.429E-03 0.963E-05 -.282E-04
   0.184E+00 -.158E+02 0.823E+02   -.171E+00 0.170E+02 -.835E+02   -.116E-01 -.115E+01 0.122E+01   0.593E-04 0.645E-04 0.157E-04
   0.183E+00 -.161E+02 0.821E+02   -.170E+00 0.172E+02 -.833E+02   -.117E-01 -.114E+01 0.122E+01   0.183E-03 -.465E-04 -.687E-04
   -.141E+00 -.159E+02 0.822E+02   0.143E+00 0.171E+02 -.834E+02   -.233E-02 -.114E+01 0.122E+01   -.583E-04 0.471E-04 -.253E-04
   -.468E-01 -.160E+02 0.821E+02   0.538E-01 0.171E+02 -.834E+02   -.685E-02 -.114E+01 0.122E+01   -.758E-05 0.793E-05 -.334E-04
   -.470E-01 -.159E+02 0.822E+02   0.538E-01 0.171E+02 -.834E+02   -.694E-02 -.114E+01 0.122E+01   0.113E-03 0.664E-06 -.152E-04
   -.199E+00 -.159E+02 0.822E+02   0.198E+00 0.171E+02 -.834E+02   -.343E-03 -.114E+01 0.122E+01   -.125E-03 -.895E-05 -.790E-05
   -.198E-01 -.159E+02 0.821E+02   0.291E-01 0.171E+02 -.833E+02   -.864E-02 -.115E+01 0.122E+01   0.316E-04 0.529E-04 -.256E-04
   -.204E-01 -.160E+02 0.822E+02   0.296E-01 0.171E+02 -.834E+02   -.870E-02 -.114E+01 0.122E+01   0.142E-03 -.536E-04 -.524E-05
   -.251E+00 -.159E+02 -.822E+02   0.247E+00 0.171E+02 0.834E+02   0.250E-02 -.114E+01 -.122E+01   -.141E-03 -.483E-05 0.131E-04
   0.471E-03 -.160E+02 -.822E+02   0.114E-01 0.171E+02 0.834E+02   -.109E-01 -.114E+01 -.122E+01   0.336E-04 -.585E-04 0.297E-04
   0.390E-03 -.159E+02 -.821E+02   0.114E-01 0.171E+02 0.833E+02   -.111E-01 -.115E+01 -.122E+01   0.164E-03 0.769E-04 -.749E-05
   -.141E+00 -.159E+02 -.822E+02   0.143E+00 0.171E+02 0.834E+02   -.248E-02 -.114E+01 -.122E+01   -.595E-04 -.383E-04 0.386E-04
   -.467E-01 -.159E+02 -.822E+02   0.536E-01 0.171E+02 0.834E+02   -.675E-02 -.114E+01 -.122E+01   -.138E-04 0.641E-06 0.292E-04
   -.472E-01 -.160E+02 -.821E+02   0.540E-01 0.171E+02 0.834E+02   -.684E-02 -.114E+01 -.122E+01   0.107E-03 -.259E-04 0.306E-04
   -.158E+01 -.159E+02 -.822E+02   0.153E+01 0.171E+02 0.834E+02   0.423E-01 -.114E+01 -.122E+01   -.423E-03 0.248E-04 0.185E-04
   0.182E+00 -.160E+02 -.820E+02   -.169E+00 0.172E+02 0.833E+02   -.120E-01 -.114E+01 -.122E+01   0.462E-04 -.142E-04 0.700E-04
   0.184E+00 -.159E+02 -.823E+02   -.170E+00 0.170E+02 0.835E+02   -.121E-01 -.114E+01 -.122E+01   0.194E-03 0.440E-04 -.277E-04
   -.199E+00 -.159E+02 -.822E+02   0.197E+00 0.171E+02 0.834E+02   0.482E-03 -.114E+01 -.122E+01   -.105E-03 -.136E-04 0.338E-04
   -.195E-01 -.159E+02 -.821E+02   0.297E-01 0.171E+02 0.834E+02   -.934E-02 -.114E+01 -.122E+01   0.423E-04 -.779E-05 0.939E-04
   -.202E-01 -.160E+02 -.822E+02   0.303E-01 0.171E+02 0.834E+02   -.942E-02 -.114E+01 -.121E+01   0.148E-03 -.323E-04 -.268E-04
 -----------------------------------------------------------------------------------------------
   -.111E+00 -.193E+01 0.116E-02   0.148E-12 -.536E-12 -.796E-12   0.111E+00 0.194E+01 -.114E-02   -.831E-03 -.317E-03 0.401E-05
 
 
 POSITION                                       TOTAL-FORCE (eV/Angst)
 -----------------------------------------------------------------------------------
      0.43553      4.06770      3.99103        -0.016623     -0.000668     -0.002446
      4.34744      4.04855      3.99103        -0.013140      0.000663      0.002091
      8.25935      4.02941      3.99103         0.000572     -0.000037     -0.000082
      0.46293      9.67687      3.99103        -0.000334     -0.000100      0.000056
      4.37484      9.65772      3.99103         0.001575     -0.000007     -0.000249
      8.28675      9.63857      3.99103         0.000325     -0.000032     -0.000092
      0.43553      4.06770      9.58884        -0.000357     -0.000001     -0.000567
      4.34744      4.04855      9.58884         0.001555     -0.000109      0.000368
      8.25935      4.02941      9.58884         0.000301     -0.000035     -0.000082
      0.46293      9.67687      9.58884         0.000059     -0.000058     -0.000162
      4.37484      9.65772      9.58884         0.001970     -0.000055     -0.000027
      8.28675      9.63857      9.58884        -0.000134     -0.000033     -0.000085
      0.42183      1.26312      1.60678        -0.000043      0.000262      0.000580
      4.33373      1.24397      1.60678         0.001863     -0.000373     -0.000382
      8.24564      1.22482      1.60678         0.000061     -0.000033      0.000088
      0.44923      6.87229      1.60678        -0.000033     -0.000398      0.000562
      4.36114      6.85314      1.60678         0.001877      0.000287     -0.000359
      8.27305      6.83399      1.60678         0.000042     -0.000035      0.000091
      0.42183      1.26312      7.20459        -0.000023      0.000518     -0.000304
      4.33373      1.24397      7.20459         0.001881     -0.000624      0.000513
      8.24564      1.22482      7.20459         0.000200     -0.000033      0.000085
      0.44923      6.87229      7.20459        -0.000029     -0.000644     -0.000358
      4.36114      6.85314      7.20459         0.001884      0.000524      0.000558
      8.27305      6.83399      7.20459         0.000182     -0.000034      0.000086
      2.38373      2.44499      3.05038        -0.005693      0.000137     -0.000052
      6.29564      2.42584      3.05038         0.000685     -0.000149     -0.000324
     10.20755      2.40669      3.05038         0.000657      0.000333      0.000224
      2.41113      8.05416      3.05038        -0.001295      0.000100     -0.000059
      6.32304      8.03501      3.05038         0.000539      0.000127     -0.000464
     10.23495      8.01586      3.05038         0.000508      0.000062      0.000361
      2.38373      2.44499      8.64819        -0.001052      0.000098     -0.000060
      6.29564      2.42584      8.64819         0.000421     -0.000352      0.000241
     10.20755      2.40669      8.64819         0.000396      0.000524     -0.000341
      2.41113      8.05416      8.64819        -0.000575      0.000102     -0.000059
      6.32304      8.03501      8.64819         0.000033      0.000187      0.000076
     10.23495      8.01586      8.64819         0.000002      0.000015     -0.000173
      2.39743      5.24957      2.54743        -0.005697      0.000113      0.000069
      6.30934      5.23042      2.54743         0.000647      0.000326     -0.000274
     10.22125      5.21128      2.54743         0.000616     -0.000143      0.000376
      2.42483     10.85874      2.54743        -0.000916      0.000104      0.000056
      6.33674     10.83959      2.54743         0.000314     -0.000089     -0.000384
     10.24865     10.82044      2.54743         0.000283      0.000283      0.000481
      2.39743      5.24957      8.14524        -0.001519      0.000110      0.000061
      6.30934      5.23042      8.14524         0.000733      0.000553      0.000197
     10.22125      5.21128      8.14524         0.000695     -0.000365     -0.000103
      2.42483     10.85874      8.14524        -0.000595      0.000101      0.000058
      6.33674     10.83959      8.14524         0.000041     -0.000028      0.000179
     10.24865     10.82044      8.14524         0.000014      0.000222     -0.000085
      2.38183      4.11334      4.18453         0.079857     -0.000362      0.000388
      6.30374      4.09414      4.18453        -0.003183     -0.000125     -0.000382
     10.21565      4.07499      4.18453        -0.003427      0.000071      0.000638
      2.41924      9.72245      4.18453         0.001680     -0.000067      0.000075
      6.33115      9.70331      4.18453        -0.001337      0.000073      0.000089
     10.24306      9.68416      4.18453        -0.001554     -0.000143      0.000154
      2.39183      4.11329      9.78234         0.001725     -0.000068      0.000072
      6.30374      4.09414      9.78234        -0.001363     -0.000069     -0.000085
     10.21565      4.07499      9.78234        -0.001578      0.000011      0.000306
      2.41924      9.72245      9.78234         0.000656     -0.000068      0.000069
      6.33115      9.70331      9.78234        -0.000334     -0.000024      0.000157
     10.24306      9.68416      9.78234        -0.000546     -0.000041      0.000070
      2.37813      1.30870      1.41328         0.001152     -0.000048     -0.000048
      6.29004      1.28956      1.41328        -0.000628      0.000342      0.000164
     10.20195      1.27041      1.41328        -0.000848     -0.000418     -0.000401
      2.40554      6.91787      1.41328         0.001153     -0.000047     -0.000051
      6.31744      6.89872      1.41328        -0.000634     -0.000409      0.000102
     10.22935      6.87958      1.41328        -0.000843      0.000332     -0.000340
      2.37813      1.30870      7.01109         0.001966     -0.000049     -0.000066
      6.29004      1.28956      7.01109        -0.000844      0.000426     -0.000594
     10.20195      1.27041      7.01109        -0.001060     -0.000486      0.000370
      2.40554      6.91787      7.01109         0.001970     -0.000063     -0.000060
      6.31744      6.89872      7.01109        -0.000847     -0.000437     -0.000603
     10.22935      6.87958      7.01109        -0.001059      0.000381      0.000380
      0.43605      4.15009      1.34677        -0.002272     -0.000052     -0.005126
      4.34796      4.13094      1.34677        -0.002285     -0.000048      0.004983
      8.25987      4.11179      1.34677        -0.001356     -0.000053     -0.000059
      0.46346      9.75926      1.34677         0.000123     -0.000085     -0.000502
      4.37537      9.74011      1.34677         0.000102     -0.000029      0.000388
      8.28728      9.72096      1.34677        -0.000689     -0.000051     -0.000061
      0.43605      4.15009      6.94458        -0.003201     -0.000027      0.006604
      4.34796      4.13094      6.94458        -0.003221     -0.000051     -0.006675
      8.25987      4.11179      6.94458        -0.001690     -0.000050     -0.000054
      0.46346      9.75926      6.94458         0.000313     -0.000071      0.000414
      4.37537      9.74011      6.94458         0.000295     -0.000066     -0.000541
      8.28728      9.72096      6.94458        -0.001053     -0.000059     -0.000063
      0.42235      1.34551      4.25104        -0.002947     -0.005883      0.000603
      4.33426      1.32636      4.25104        -0.002900      0.005769     -0.000482
      8.24617      1.30721      4.25104        -0.001601     -0.000047      0.000056
      0.44976      6.95467      4.25104        -0.002528      0.005634      0.000556
      4.36166      6.93553      4.25104        -0.002609     -0.005688     -0.000428
      8.27357      6.91638      4.25104        -0.001513     -0.000048      0.000059
      0.42235      1.34551      9.84885         0.000171     -0.000537      0.000224
      4.33426      1.32636      9.84885         0.000163      0.000429     -0.000101
      8.24617      1.30721      9.84885        -0.000818     -0.000052      0.000062
      0.44976      6.95467      9.84885         0.000191      0.000386      0.000185
      4.36166      6.93553      9.84885         0.000177     -0.000502     -0.000074
      8.27357      6.91638      9.84885        -0.000817     -0.000057      0.000058
      2.37239      0.12585      5.37429        -0.002182      0.000057      0.000037
      6.28430      0.10670      5.37429         0.001267     -0.000197      0.000833
     10.19621      0.08756      5.37429         0.001218      0.000279     -0.000751
      2.39979      5.73502      5.37429        -0.008695     -0.000025     -0.000051
      6.31170      5.71587      5.37429         0.001487      0.000726      0.000536
     10.22361      5.69672      5.37429         0.001433     -0.000658     -0.000462
      2.37239      0.12585     10.97210        -0.000776      0.000057      0.000040
      6.28430      0.10670     10.97210         0.000112     -0.000133     -0.000150
     10.19621      0.08756     10.97210         0.000058      0.000228      0.000239
      2.39979      5.73502     10.97210        -0.001495      0.000059      0.000034
      6.31170      5.71587     10.97210         0.000677      0.000849     -0.000104
     10.22361      5.69672     10.97210         0.000615     -0.000761      0.000198
      2.38609      2.93043      0.22352        -0.001929      0.000066     -0.000054
      6.29800      2.91129      0.22352         0.000950     -0.000689     -0.000042
     10.20991      2.89214      0.22352         0.000905      0.000778     -0.000041
      2.41350      8.53960      0.22352        -0.000761      0.000063     -0.000054
      6.32541      8.52045      0.22352         0.000105      0.000248     -0.000172
     10.23731      8.50131      0.22352         0.000048     -0.000158      0.000089
      2.38609      2.93043      5.82133        -0.009121      0.000189     -0.000168
      6.29800      2.91129      5.82133         0.001573     -0.000598      0.000450
     10.20991      2.89214      5.82133         0.001531      0.000681     -0.000561
      2.41350      8.53960      5.82133        -0.001716      0.000063     -0.000056
      6.32541      8.52045      5.82133         0.000883      0.000420      0.000759
     10.23731      8.50131      5.82133         0.000828     -0.000335     -0.000858
 -----------------------------------------------------------------------------------
    total drift:                               -0.000720      0.001542      0.000033


--------------------------------------------------------------------------------------------------------



  FREE ENERGIE OF THE ION-ELECTRON SYSTEM (eV)
  ---------------------------------------------------
  free  energy   TOTEN  =      -616.43211546 eV

  energy  without entropy=     -616.43211546  energy(sigma->0) =     -616.43211546
 


--------------------------------------------------------------------------------------------------------


    POTLOK:  cpu time    1.9104: real time    1.9424


--------------------------------------------------------------------------------------------------------


     LOOP+:  cpu time 5501.2898: real time 5552.0470
    4ORBIT:  cpu time    0.0000: real time    0.0000

 total amount of memory used by VASP MPI-rank0   801761. kBytes
=======================================================================

   base      :      30000. kBytes
   nonl-proj :      92491. kBytes
   fftplans  :      50318. kBytes
   grid      :      44712. kBytes
   one-center:        622. kBytes
   wavefun   :     583618. kBytes
 
  
  
 General timing and accounting informations for this job:
 ========================================================
  
                  Total CPU time used (sec):     5598.658
                            User time (sec):     5537.498
                          System time (sec):       61.160
                         Elapsed time (sec):     5650.875
  
                   Maximum memory used (kb):      974692.
                   Average memory used (kb):           0.
  
                          Minor page faults:       710552
                          Major page faults:           24
                 Voluntary context switches:        60522
