 224 224   0   0
  0.1357572E+02  0.1537960E-08  0.1537962E-08  0.1395899E-08  0.5000000E-15
  1.000000000000000E-004
  CAR 
 unknown system                          
     17.69818727    -54.42028658  301      5.25775053      1.00000000
    -54.420  0.0000E+00  0.0000E+00  0.0000E+00  0.0000E+00
    -54.180  0.0000E+00  0.0000E+00  0.0000E+00  0.0000E+00
    -53.939  0.0000E+00  0.0000E+00  0.0000E+00  0.0000E+00
    -53.699  0.0000E+00  0.0000E+00  0.0000E+00  0.0000E+00
    -53.459  0.0000E+00  0.0000E+00  0.0000E+00  0.0000E+00
    -53.218  0.0000E+00  0.0000E+00  0.0000E+00  0.0000E+00
    -52.978  0.0000E+00  0.0000E+00  0.0000E+00  0.0000E+00
    -52.738  0.0000E+00  0.0000E+00  0.0000E+00  0.0000E+00
    -52.497  0.0000E+00  0.0000E+00  0.0000E+00  0.0000E+00
    -52.257  0.0000E+00  0.0000E+00  0.0000E+00  0.0000E+00
    -52.016  0.0000E+00  0.0000E+00  0.0000E+00  0.0000E+00
    -51.776  0.0000E+00  0.0000E+00  0.0000E+00  0.0000E+00
    -51.536  0.0000E+00  0.0000E+00  0.0000E+00  0.0000E+00
    -51.295  0.1596E-02  0.0000E+00  0.3836E-03  0.0000E+00
    -51.055  0.2642E+03  0.0000E+00  0.6350E+02  0.0000E+00
    -50.814  0.2065E+01  0.0000E+00  0.6400E+02  0.0000E+00
    -50.574  0.0000E+00  0.0000E+00  0.6400E+02  0.0000E+00
    -50.334  0.0000E+00  0.0000E+00  0.6400E+02  0.0000E+00
    -50.093  0.0000E+00  0.0000E+00  0.6400E+02  0.0000E+00
    -49.853  0.1266E-05  0.0000E+00  0.6400E+02  0.0000E+00
    -49.612  0.4400E+03  0.0000E+00  0.1698E+03  0.0000E+00
    -49.372  0.9248E+02  0.0000E+00  0.1920E+03  0.0000E+00
    -49.132  0.0000E+00  0.0000E+00  0.1920E+03  0.0000E+00
    -48.891  0.0000E+00  0.0000E+00  0.1920E+03  0.0000E+00
    -48.651  0.0000E+00  0.0000E+00  0.1920E+03  0.0000E+00
    -48.410  0.0000E+00  0.0000E+00  0.1920E+03  0.0000E+00
    -48.170  0.0000E+00  0.0000E+00  0.1920E+03  0.0000E+00
    -47.930  0.0000E+00  0.0000E+00  0.1920E+03  0.0000E+00
    -47.689  0.0000E+00  0.0000E+00  0.1920E+03  0.0000E+00
    -47.449  0.0000E+00  0.0000E+00  0.1920E+03  0.0000E+00
    -47.208  0.0000E+00  0.0000E+00  0.1920E+03  0.0000E+00
    -46.968  0.0000E+00  0.0000E+00  0.1920E+03  0.0000E+00
    -46.728  0.0000E+00  0.0000E+00  0.1920E+03  0.0000E+00
    -46.487  0.0000E+00  0.7432E+00  0.1920E+03  0.1787E+00
    -46.247  0.0000E+00  0.2655E+03  0.1920E+03  0.6400E+02
    -46.006  0.0000E+00  0.6681E+01  0.1920E+03  0.6560E+02
    -45.766  0.0000E+00  0.5258E+03  0.1920E+03  0.1920E+03
    -45.526  0.0000E+00  0.9972E-04  0.1920E+03  0.1920E+03
    -45.285  0.0000E+00  0.0000E+00  0.1920E+03  0.1920E+03
    -45.045  0.0000E+00  0.0000E+00  0.1920E+03  0.1920E+03
    -44.804  0.0000E+00  0.0000E+00  0.1920E+03  0.1920E+03
    -44.564  0.0000E+00  0.0000E+00  0.1920E+03  0.1920E+03
    -44.324  0.0000E+00  0.0000E+00  0.1920E+03  0.1920E+03
    -44.083  0.0000E+00  0.0000E+00  0.1920E+03  0.1920E+03
    -43.843  0.0000E+00  0.0000E+00  0.1920E+03  0.1920E+03
    -43.603  0.0000E+00  0.0000E+00  0.1920E+03  0.1920E+03
    -43.362  0.0000E+00  0.0000E+00  0.1920E+03  0.1920E+03
    -43.122  0.0000E+00  0.0000E+00  0.1920E+03  0.1920E+03
    -42.881  0.0000E+00  0.0000E+00  0.1920E+03  0.1920E+03
    -42.641  0.0000E+00  0.0000E+00  0.1920E+03  0.1920E+03
    -42.401  0.0000E+00  0.0000E+00  0.1920E+03  0.1920E+03
    -42.160  0.0000E+00  0.0000E+00  0.1920E+03  0.1920E+03
    -41.920  0.0000E+00  0.0000E+00  0.1920E+03  0.1920E+03
    -41.679  0.0000E+00  0.0000E+00  0.1920E+03  0.1920E+03
    -41.439  0.0000E+00  0.0000E+00  0.1920E+03  0.1920E+03
    -41.199  0.0000E+00  0.0000E+00  0.1920E+03  0.1920E+03
    -40.958  0.0000E+00  0.0000E+00  0.1920E+03  0.1920E+03
    -40.718  0.0000E+00  0.0000E+00  0.1920E+03  0.1920E+03
    -40.477  0.0000E+00  0.0000E+00  0.1920E+03  0.1920E+03
    -40.237  0.0000E+00  0.0000E+00  0.1920E+03  0.1920E+03
    -39.997  0.0000E+00  0.0000E+00  0.1920E+03  0.1920E+03
    -39.756  0.2222E-01  0.2026E-01  0.1920E+03  0.1920E+03
    -39.516  0.2652E+03  0.2652E+03  0.2558E+03  0.2558E+03
    -39.275  0.9603E+00  0.1019E+01  0.2560E+03  0.2560E+03
    -39.035  0.0000E+00  0.0000E+00  0.2560E+03  0.2560E+03
    -38.795  0.0000E+00  0.0000E+00  0.2560E+03  0.2560E+03
    -38.554  0.0000E+00  0.0000E+00  0.2560E+03  0.2560E+03
    -38.314  0.0000E+00  0.0000E+00  0.2560E+03  0.2560E+03
    -38.073  0.0000E+00  0.0000E+00  0.2560E+03  0.2560E+03
    -37.833  0.0000E+00  0.0000E+00  0.2560E+03  0.2560E+03
    -37.593  0.0000E+00  0.0000E+00  0.2560E+03  0.2560E+03
    -37.352  0.0000E+00  0.0000E+00  0.2560E+03  0.2560E+03
    -37.112  0.0000E+00  0.0000E+00  0.2560E+03  0.2560E+03
    -36.871  0.0000E+00  0.0000E+00  0.2560E+03  0.2560E+03
    -36.631  0.0000E+00  0.0000E+00  0.2560E+03  0.2560E+03
    -36.391  0.0000E+00  0.0000E+00  0.2560E+03  0.2560E+03
    -36.150  0.0000E+00  0.0000E+00  0.2560E+03  0.2560E+03
    -35.910  0.0000E+00  0.0000E+00  0.2560E+03  0.2560E+03
    -35.669  0.0000E+00  0.0000E+00  0.2560E+03  0.2560E+03
    -35.429  0.0000E+00  0.0000E+00  0.2560E+03  0.2560E+03
    -35.189  0.0000E+00  0.0000E+00  0.2560E+03  0.2560E+03
    -34.948  0.0000E+00  0.0000E+00  0.2560E+03  0.2560E+03
    -34.708  0.0000E+00  0.0000E+00  0.2560E+03  0.2560E+03
    -34.468  0.0000E+00  0.0000E+00  0.2560E+03  0.2560E+03
    -34.227  0.0000E+00  0.0000E+00  0.2560E+03  0.2560E+03
    -33.987  0.0000E+00  0.0000E+00  0.2560E+03  0.2560E+03
    -33.746  0.0000E+00  0.0000E+00  0.2560E+03  0.2560E+03
    -33.506  0.0000E+00  0.0000E+00  0.2560E+03  0.2560E+03
    -33.266  0.0000E+00  0.0000E+00  0.2560E+03  0.2560E+03
    -33.025  0.0000E+00  0.0000E+00  0.2560E+03  0.2560E+03
    -32.785  0.0000E+00  0.0000E+00  0.2560E+03  0.2560E+03
    -32.544  0.0000E+00  0.0000E+00  0.2560E+03  0.2560E+03
    -32.304  0.0000E+00  0.0000E+00  0.2560E+03  0.2560E+03
    -32.064  0.0000E+00  0.0000E+00  0.2560E+03  0.2560E+03
    -31.823  0.0000E+00  0.0000E+00  0.2560E+03  0.2560E+03
    -31.583  0.0000E+00  0.0000E+00  0.2560E+03  0.2560E+03
    -31.342  0.0000E+00  0.0000E+00  0.2560E+03  0.2560E+03
    -31.102  0.0000E+00  0.0000E+00  0.2560E+03  0.2560E+03
    -30.862  0.0000E+00  0.0000E+00  0.2560E+03  0.2560E+03
    -30.621  0.0000E+00  0.0000E+00  0.2560E+03  0.2560E+03
    -30.381  0.0000E+00  0.0000E+00  0.2560E+03  0.2560E+03
    -30.140  0.0000E+00  0.0000E+00  0.2560E+03  0.2560E+03
    -29.900  0.0000E+00  0.0000E+00  0.2560E+03  0.2560E+03
    -29.660  0.0000E+00  0.0000E+00  0.2560E+03  0.2560E+03
    -29.419  0.0000E+00  0.0000E+00  0.2560E+03  0.2560E+03
    -29.179  0.0000E+00  0.0000E+00  0.2560E+03  0.2560E+03
    -28.938  0.0000E+00  0.0000E+00  0.2560E+03  0.2560E+03
    -28.698  0.0000E+00  0.0000E+00  0.2560E+03  0.2560E+03
    -28.458  0.0000E+00  0.0000E+00  0.2560E+03  0.2560E+03
    -28.217  0.0000E+00  0.0000E+00  0.2560E+03  0.2560E+03
    -27.977  0.0000E+00  0.0000E+00  0.2560E+03  0.2560E+03
    -27.736  0.0000E+00  0.0000E+00  0.2560E+03  0.2560E+03
    -27.496  0.0000E+00  0.0000E+00  0.2560E+03  0.2560E+03
    -27.256  0.0000E+00  0.0000E+00  0.2560E+03  0.2560E+03
    -27.015  0.0000E+00  0.0000E+00  0.2560E+03  0.2560E+03
    -26.775  0.0000E+00  0.0000E+00  0.2560E+03  0.2560E+03
    -26.534  0.0000E+00  0.0000E+00  0.2560E+03  0.2560E+03
    -26.294  0.0000E+00  0.0000E+00  0.2560E+03  0.2560E+03
    -26.054  0.0000E+00  0.0000E+00  0.2560E+03  0.2560E+03
    -25.813  0.0000E+00  0.0000E+00  0.2560E+03  0.2560E+03
    -25.573  0.0000E+00  0.0000E+00  0.2560E+03  0.2560E+03
    -25.333  0.0000E+00  0.0000E+00  0.2560E+03  0.2560E+03
    -25.092  0.0000E+00  0.0000E+00  0.2560E+03  0.2560E+03
    -24.852  0.0000E+00  0.0000E+00  0.2560E+03  0.2560E+03
    -24.611  0.0000E+00  0.0000E+00  0.2560E+03  0.2560E+03
    -24.371  0.0000E+00  0.0000E+00  0.2560E+03  0.2560E+03
    -24.131  0.0000E+00  0.0000E+00  0.2560E+03  0.2560E+03
    -23.890  0.0000E+00  0.0000E+00  0.2560E+03  0.2560E+03
    -23.650  0.0000E+00  0.0000E+00  0.2560E+03  0.2560E+03
    -23.409  0.0000E+00  0.0000E+00  0.2560E+03  0.2560E+03
    -23.169  0.0000E+00  0.0000E+00  0.2560E+03  0.2560E+03
    -22.929  0.0000E+00  0.0000E+00  0.2560E+03  0.2560E+03
    -22.688  0.0000E+00  0.0000E+00  0.2560E+03  0.2560E+03
    -22.448  0.0000E+00  0.0000E+00  0.2560E+03  0.2560E+03
    -22.207  0.0000E+00  0.0000E+00  0.2560E+03  0.2560E+03
    -21.967  0.0000E+00  0.0000E+00  0.2560E+03  0.2560E+03
    -21.727  0.0000E+00  0.0000E+00  0.2560E+03  0.2560E+03
    -21.486  0.0000E+00  0.0000E+00  0.2560E+03  0.2560E+03
    -21.246  0.0000E+00  0.0000E+00  0.2560E+03  0.2560E+03
    -21.005  0.0000E+00  0.0000E+00  0.2560E+03  0.2560E+03
    -20.765  0.0000E+00  0.0000E+00  0.2560E+03  0.2560E+03
    -20.525  0.0000E+00  0.0000E+00  0.2560E+03  0.2560E+03
    -20.284  0.0000E+00  0.0000E+00  0.2560E+03  0.2560E+03
    -20.044  0.0000E+00  0.0000E+00  0.2560E+03  0.2560E+03
    -19.803  0.0000E+00  0.0000E+00  0.2560E+03  0.2560E+03
    -19.563  0.0000E+00  0.0000E+00  0.2560E+03  0.2560E+03
    -19.323  0.0000E+00  0.0000E+00  0.2560E+03  0.2560E+03
    -19.082  0.0000E+00  0.0000E+00  0.2560E+03  0.2560E+03
    -18.842  0.0000E+00  0.0000E+00  0.2560E+03  0.2560E+03
    -18.601  0.0000E+00  0.0000E+00  0.2560E+03  0.2560E+03
    -18.361  0.0000E+00  0.0000E+00  0.2560E+03  0.2560E+03
    -18.121  0.0000E+00  0.0000E+00  0.2560E+03  0.2560E+03
    -17.880  0.0000E+00  0.0000E+00  0.2560E+03  0.2560E+03
    -17.640  0.0000E+00  0.0000E+00  0.2560E+03  0.2560E+03
    -17.399  0.0000E+00  0.0000E+00  0.2560E+03  0.2560E+03
    -17.159  0.0000E+00  0.0000E+00  0.2560E+03  0.2560E+03
    -16.919  0.0000E+00  0.0000E+00  0.2560E+03  0.2560E+03
    -16.678  0.0000E+00  0.0000E+00  0.2560E+03  0.2560E+03
    -16.438  0.0000E+00  0.0000E+00  0.2560E+03  0.2560E+03
    -16.197  0.0000E+00  0.0000E+00  0.2560E+03  0.2560E+03
    -15.957  0.0000E+00  0.0000E+00  0.2560E+03  0.2560E+03
    -15.717  0.0000E+00  0.0000E+00  0.2560E+03  0.2560E+03
    -15.476  0.0000E+00  0.0000E+00  0.2560E+03  0.2560E+03
    -15.236  0.0000E+00  0.0000E+00  0.2560E+03  0.2560E+03
    -14.996  0.0000E+00  0.0000E+00  0.2560E+03  0.2560E+03
    -14.755  0.0000E+00  0.0000E+00  0.2560E+03  0.2560E+03
    -14.515  0.0000E+00  0.0000E+00  0.2560E+03  0.2560E+03
    -14.274  0.0000E+00  0.0000E+00  0.2560E+03  0.2560E+03
    -14.034  0.0000E+00  0.0000E+00  0.2560E+03  0.2560E+03
    -13.794  0.0000E+00  0.0000E+00  0.2560E+03  0.2560E+03
    -13.553  0.0000E+00  0.0000E+00  0.2560E+03  0.2560E+03
    -13.313  0.0000E+00  0.0000E+00  0.2560E+03  0.2560E+03
    -13.072  0.0000E+00  0.0000E+00  0.2560E+03  0.2560E+03
    -12.832  0.8464E-01  0.0000E+00  0.2560E+03  0.2560E+03
    -12.592  0.1321E+03  0.1695E-02  0.2878E+03  0.2560E+03
    -12.351  0.9663E+00  0.1241E+03  0.2880E+03  0.2858E+03
    -12.111  0.0000E+00  0.9007E+01  0.2880E+03  0.2880E+03
    -11.870  0.0000E+00  0.0000E+00  0.2880E+03  0.2880E+03
    -11.630  0.0000E+00  0.0000E+00  0.2880E+03  0.2880E+03
    -11.390  0.0000E+00  0.0000E+00  0.2880E+03  0.2880E+03
    -11.149  0.0000E+00  0.0000E+00  0.2880E+03  0.2880E+03
    -10.909  0.0000E+00  0.0000E+00  0.2880E+03  0.2880E+03
    -10.668  0.0000E+00  0.0000E+00  0.2880E+03  0.2880E+03
    -10.428  0.0000E+00  0.0000E+00  0.2880E+03  0.2880E+03
    -10.188  0.0000E+00  0.0000E+00  0.2880E+03  0.2880E+03
     -9.947  0.0000E+00  0.0000E+00  0.2880E+03  0.2880E+03
     -9.707  0.0000E+00  0.0000E+00  0.2880E+03  0.2880E+03
     -9.466  0.0000E+00  0.0000E+00  0.2880E+03  0.2880E+03
     -9.226  0.0000E+00  0.0000E+00  0.2880E+03  0.2880E+03
     -8.986  0.0000E+00  0.0000E+00  0.2880E+03  0.2880E+03
     -8.745  0.0000E+00  0.0000E+00  0.2880E+03  0.2880E+03
     -8.505  0.0000E+00  0.0000E+00  0.2880E+03  0.2880E+03
     -8.264  0.0000E+00  0.0000E+00  0.2880E+03  0.2880E+03
     -8.024  0.6208E-10  0.0000E+00  0.2880E+03  0.2880E+03
     -7.784  0.9627E+00  0.4809E-07  0.2882E+03  0.2880E+03
     -7.543  0.1883E+02  0.2930E+01  0.2928E+03  0.2887E+03
     -7.303  0.2825E+02  0.2244E+02  0.2995E+03  0.2941E+03
     -7.062  0.5406E+02  0.3111E+02  0.3125E+03  0.3016E+03
     -6.822  0.1469E+03  0.4892E+02  0.3479E+03  0.3133E+03
     -6.582  0.1723E+02  0.1390E+03  0.3520E+03  0.3468E+03
     -6.341  0.0000E+00  0.2184E+02  0.3520E+03  0.3520E+03
     -6.101  0.0000E+00  0.9968E-05  0.3520E+03  0.3520E+03
     -5.861  0.0000E+00  0.0000E+00  0.3520E+03  0.3520E+03
     -5.620  0.0000E+00  0.0000E+00  0.3520E+03  0.3520E+03
     -5.380  0.0000E+00  0.0000E+00  0.3520E+03  0.3520E+03
     -5.139  0.0000E+00  0.0000E+00  0.3520E+03  0.3520E+03
     -4.899  0.0000E+00  0.0000E+00  0.3520E+03  0.3520E+03
     -4.659  0.0000E+00  0.0000E+00  0.3520E+03  0.3520E+03
     -4.418  0.0000E+00  0.0000E+00  0.3520E+03  0.3520E+03
     -4.178  0.0000E+00  0.0000E+00  0.3520E+03  0.3520E+03
     -3.937  0.0000E+00  0.0000E+00  0.3520E+03  0.3520E+03
     -3.697  0.0000E+00  0.0000E+00  0.3520E+03  0.3520E+03
     -3.457  0.0000E+00  0.0000E+00  0.3520E+03  0.3520E+03
     -3.216  0.0000E+00  0.0000E+00  0.3520E+03  0.3520E+03
     -2.976  0.0000E+00  0.0000E+00  0.3520E+03  0.3520E+03
     -2.735  0.0000E+00  0.0000E+00  0.3520E+03  0.3520E+03
     -2.495  0.0000E+00  0.0000E+00  0.3520E+03  0.3520E+03
     -2.255  0.0000E+00  0.0000E+00  0.3520E+03  0.3520E+03
     -2.014  0.0000E+00  0.0000E+00  0.3520E+03  0.3520E+03
     -1.774  0.6090E-12  0.0000E+00  0.3520E+03  0.3520E+03
     -1.533  0.1303E+01  0.0000E+00  0.3523E+03  0.3520E+03
     -1.293  0.1004E+03  0.0000E+00  0.3765E+03  0.3520E+03
     -1.053  0.3139E+02  0.0000E+00  0.3840E+03  0.3520E+03
     -0.812  0.1260E+02  0.0000E+00  0.3870E+03  0.3520E+03
     -0.572  0.8983E+02  0.8928E-05  0.4086E+03  0.3520E+03
     -0.331  0.2244E+03  0.4140E+01  0.4626E+03  0.3530E+03
     -0.091  0.2015E+03  0.2463E+02  0.5110E+03  0.3589E+03
      0.149  0.1766E+03  0.4116E+02  0.5535E+03  0.3688E+03
      0.390  0.1516E+03  0.4247E+02  0.5899E+03  0.3790E+03
      0.630  0.1194E+03  0.7208E+02  0.6186E+03  0.3963E+03
      0.871  0.5424E+02  0.6026E+02  0.6316E+03  0.4108E+03
      1.111  0.6997E+02  0.6550E+02  0.6485E+03  0.4266E+03
      1.351  0.7324E+02  0.6776E+02  0.6661E+03  0.4429E+03
      1.592  0.6803E+02  0.7759E+02  0.6824E+03  0.4615E+03
      1.832  0.1110E+03  0.1112E+03  0.7091E+03  0.4882E+03
      2.073  0.2135E+03  0.6173E+02  0.7604E+03  0.5031E+03
      2.313  0.1397E+03  0.3798E+02  0.7940E+03  0.5122E+03
      2.553  0.8442E+02  0.7762E+02  0.8143E+03  0.5309E+03
      2.794  0.6860E+02  0.1040E+03  0.8308E+03  0.5559E+03
      3.034  0.3521E+02  0.7076E+02  0.8393E+03  0.5729E+03
      3.274  0.4053E+02  0.1315E+03  0.8490E+03  0.6045E+03
      3.515  0.5189E+02  0.1169E+03  0.8615E+03  0.6326E+03
      3.755  0.6738E+02  0.2512E+02  0.8777E+03  0.6386E+03
      3.996  0.7999E+02  0.4414E+02  0.8969E+03  0.6492E+03
      4.236  0.8002E+02  0.1787E+03  0.9161E+03  0.6922E+03
      4.476  0.7565E+02  0.4749E+02  0.9343E+03  0.7036E+03
      4.717  0.2868E+02  0.1639E+01  0.9412E+03  0.7040E+03
      4.957  0.6455E+02  0.0000E+00  0.9567E+03  0.7040E+03
      5.198  0.1359E+02  0.0000E+00  0.9600E+03  0.7040E+03
      5.438  0.0000E+00  0.0000E+00  0.9600E+03  0.7040E+03
      5.678  0.0000E+00  0.0000E+00  0.9600E+03  0.7040E+03
      5.919  0.0000E+00  0.0000E+00  0.9600E+03  0.7040E+03
      6.159  0.0000E+00  0.9889E-07  0.9600E+03  0.7040E+03
      6.400  0.0000E+00  0.1037E+01  0.9600E+03  0.7042E+03
      6.640  0.0000E+00  0.1016E+02  0.9600E+03  0.7067E+03
      6.880  0.0000E+00  0.2665E+02  0.9600E+03  0.7131E+03
      7.121  0.2886E-16  0.6599E+02  0.9600E+03  0.7290E+03
      7.361  0.6119E-01  0.1115E+03  0.9600E+03  0.7558E+03
      7.602  0.1499E+01  0.1393E+03  0.9604E+03  0.7892E+03
      7.842  0.5179E+01  0.1182E+03  0.9616E+03  0.8176E+03
      8.082  0.7087E+01  0.1788E+03  0.9633E+03  0.8606E+03
      8.323  0.9294E+01  0.1455E+03  0.9656E+03  0.8956E+03
      8.563  0.1253E+02  0.6215E+02  0.9686E+03  0.9105E+03
      8.804  0.1455E+02  0.8250E+02  0.9721E+03  0.9304E+03
      9.044  0.2712E+02  0.7287E+02  0.9786E+03  0.9479E+03
      9.284  0.3348E+02  0.5732E+02  0.9866E+03  0.9617E+03
      9.525  0.3549E+02  0.2308E+02  0.9952E+03  0.9672E+03
      9.765  0.5312E+02  0.3405E+02  0.1008E+04  0.9754E+03
     10.006  0.5116E+02  0.2268E+02  0.1020E+04  0.9809E+03
     10.246  0.3379E+02  0.3883E+02  0.1028E+04  0.9902E+03
     10.486  0.2160E+02  0.4333E+02  0.1034E+04  0.1001E+04
     10.727  0.4557E+02  0.6120E+02  0.1045E+04  0.1015E+04
     10.967  0.3308E+02  0.4341E+02  0.1052E+04  0.1026E+04
     11.208  0.4367E+02  0.4018E+02  0.1063E+04  0.1035E+04
     11.448  0.7799E+02  0.3454E+02  0.1082E+04  0.1044E+04
     11.688  0.4277E+02  0.4375E+02  0.1092E+04  0.1054E+04
     11.929  0.6451E+02  0.5201E+02  0.1107E+04  0.1067E+04
     12.169  0.6672E+02  0.5740E+02  0.1124E+04  0.1081E+04
     12.409  0.6926E+02  0.5323E+02  0.1140E+04  0.1093E+04
     12.650  0.6095E+02  0.6699E+02  0.1155E+04  0.1109E+04
     12.890  0.5275E+02  0.7974E+02  0.1168E+04  0.1129E+04
     13.131  0.5852E+02  0.6455E+02  0.1182E+04  0.1144E+04
     13.371  0.4845E+02  0.6633E+02  0.1193E+04  0.1160E+04
     13.611  0.4021E+02  0.6460E+02  0.1203E+04  0.1176E+04
     13.852  0.1878E+02  0.5725E+02  0.1207E+04  0.1189E+04
     14.092  0.2460E+01  0.5307E+02  0.1208E+04  0.1202E+04
     14.333  0.0000E+00  0.2142E+02  0.1208E+04  0.1207E+04
     14.573  0.0000E+00  0.3046E+01  0.1208E+04  0.1208E+04
     14.813  0.0000E+00  0.3932E-05  0.1208E+04  0.1208E+04
     15.054  0.0000E+00  0.0000E+00  0.1208E+04  0.1208E+04
     15.294  0.0000E+00  0.0000E+00  0.1208E+04  0.1208E+04
     15.535  0.0000E+00  0.0000E+00  0.1208E+04  0.1208E+04
     15.775  0.0000E+00  0.0000E+00  0.1208E+04  0.1208E+04
     16.015  0.0000E+00  0.0000E+00  0.1208E+04  0.1208E+04
     16.256  0.0000E+00  0.0000E+00  0.1208E+04  0.1208E+04
     16.496  0.0000E+00  0.0000E+00  0.1208E+04  0.1208E+04
     16.737  0.0000E+00  0.0000E+00  0.1208E+04  0.1208E+04
     16.977  0.0000E+00  0.0000E+00  0.1208E+04  0.1208E+04
     17.217  0.0000E+00  0.0000E+00  0.1208E+04  0.1208E+04
     17.458  0.0000E+00  0.0000E+00  0.1208E+04  0.1208E+04
     17.698  0.0000E+00  0.0000E+00  0.1208E+04  0.1208E+04
