  224  224    1    2
  0.1357572E+02  0.1537960E-08  0.1537962E-08  0.1395899E-08  0.5000000E-15
  1.000000000000000E-004
  CAR 
 unknown system                          
   1664      8   1208
 
  0.0000000E+00  0.0000000E+00  0.0000000E+00  0.1250000E+00
    1      -51.142174    -46.391468   1.000000   1.000000
    2      -51.141941    -46.391035   1.000000   1.000000
    3      -51.141611    -46.390938   1.000000   1.000000
    4      -51.141517    -46.390759   1.000000   1.000000
    5      -51.141377    -46.390627   1.000000   1.000000
    6      -51.141320    -46.390592   1.000000   1.000000
    7      -51.141253    -46.390446   1.000000   1.000000
    8      -51.141223    -46.390400   1.000000   1.000000
    9      -51.141181    -46.390327   1.000000   1.000000
   10      -51.141148    -46.390260   1.000000   1.000000
   11      -51.141041    -46.390207   1.000000   1.000000
   12      -51.141018    -46.390133   1.000000   1.000000
   13      -51.141002    -46.390115   1.000000   1.000000
   14      -51.140969    -46.390093   1.000000   1.000000
   15      -51.140899    -46.390021   1.000000   1.000000
   16      -51.140839    -46.389921   1.000000   1.000000
   17      -51.140808    -46.389878   1.000000   1.000000
   18      -51.140771    -46.389833   1.000000   1.000000
   19      -51.140749    -46.389752   1.000000   1.000000
   20      -51.140621    -46.389659   1.000000   1.000000
   21      -51.140603    -46.389638   1.000000   1.000000
   22      -51.140602    -46.389620   1.000000   1.000000
   23      -51.140578    -46.389607   1.000000   1.000000
   24      -51.140575    -46.389594   1.000000   1.000000
   25      -51.140563    -46.389585   1.000000   1.000000
   26      -51.140545    -46.389567   1.000000   1.000000
   27      -51.140536    -46.389519   1.000000   1.000000
   28      -51.140520    -46.389482   1.000000   1.000000
   29      -51.140510    -46.389393   1.000000   1.000000
   30      -51.140433    -46.389343   1.000000   1.000000
   31      -51.140371    -46.389281   1.000000   1.000000
   32      -51.140327    -46.389232   1.000000   1.000000
   33      -51.140292    -46.389211   1.000000   1.000000
   34      -51.140217    -46.389136   1.000000   1.000000
   35      -51.140191    -46.388964   1.000000   1.000000
   36      -51.140160    -46.388951   1.000000   1.000000
   37      -51.140137    -46.388916   1.000000   1.000000
   38      -51.140131    -46.388879   1.000000   1.000000
   39      -51.140112    -46.388874   1.000000   1.000000
   40      -51.140107    -46.388861   1.000000   1.000000
   41      -51.140079    -46.388833   1.000000   1.000000
   42      -51.140065    -46.388821   1.000000   1.000000
   43      -51.140025    -46.388813   1.000000   1.000000
   44      -51.139987    -46.388793   1.000000   1.000000
   45      -51.139931    -46.388678   1.000000   1.000000
   46      -51.139920    -46.388649   1.000000   1.000000
   47      -51.139900    -46.388618   1.000000   1.000000
   48      -51.139857    -46.388563   1.000000   1.000000
   49      -51.139808    -46.388522   1.000000   1.000000
   50      -51.139793    -46.388511   1.000000   1.000000
   51      -51.139769    -46.388481   1.000000   1.000000
   52      -51.139716    -46.388401   1.000000   1.000000
   53      -51.139701    -46.388385   1.000000   1.000000
   54      -51.139646    -46.388342   1.000000   1.000000
   55      -51.139584    -46.388252   1.000000   1.000000
   56      -51.139561    -46.388178   1.000000   1.000000
   57      -51.139499    -46.388142   1.000000   1.000000
   58      -51.139452    -46.388089   1.000000   1.000000
   59      -51.139442    -46.388048   1.000000   1.000000
   60      -51.139310    -46.387869   1.000000   1.000000
   61      -51.139225    -46.387790   1.000000   1.000000
   62      -51.139178    -46.387740   1.000000   1.000000
   63      -51.138802    -46.387515   1.000000   1.000000
   64      -51.138594    -46.387144   1.000000   1.000000
   65      -49.648280    -45.929456   1.000000   1.000000
   66      -49.648117    -45.929365   1.000000   1.000000
   67      -49.647812    -45.929345   1.000000   1.000000
   68      -49.647737    -45.929263   1.000000   1.000000
   69      -49.647578    -45.928947   1.000000   1.000000
   70      -49.647542    -45.928921   1.000000   1.000000
   71      -49.647487    -45.928851   1.000000   1.000000
   72      -49.647476    -45.928823   1.000000   1.000000
   73      -49.647449    -45.928769   1.000000   1.000000
   74      -49.647417    -45.928726   1.000000   1.000000
   75      -49.647383    -45.928704   1.000000   1.000000
   76      -49.647375    -45.928688   1.000000   1.000000
   77      -49.647366    -45.928680   1.000000   1.000000
   78      -49.647329    -45.928658   1.000000   1.000000
   79      -49.647312    -45.928630   1.000000   1.000000
   80      -49.647278    -45.928616   1.000000   1.000000
   81      -49.647248    -45.928601   1.000000   1.000000
   82      -49.647229    -45.928583   1.000000   1.000000
   83      -49.647178    -45.928562   1.000000   1.000000
   84      -49.647166    -45.928534   1.000000   1.000000
   85      -49.647115    -45.928443   1.000000   1.000000
   86      -49.647093    -45.928402   1.000000   1.000000
   87      -49.647015    -45.928391   1.000000   1.000000
   88      -49.646993    -45.928386   1.000000   1.000000
   89      -49.646968    -45.928348   1.000000   1.000000
   90      -49.646892    -45.928327   1.000000   1.000000
   91      -49.646867    -45.928276   1.000000   1.000000
   92      -49.646821    -45.928270   1.000000   1.000000
   93      -49.646786    -45.928217   1.000000   1.000000
   94      -49.646773    -45.928196   1.000000   1.000000
   95      -49.646757    -45.928186   1.000000   1.000000
   96      -49.646715    -45.928147   1.000000   1.000000
   97      -49.646669    -45.928123   1.000000   1.000000
   98      -49.646597    -45.928088   1.000000   1.000000
   99      -49.646571    -45.928077   1.000000   1.000000
  100      -49.646545    -45.928041   1.000000   1.000000
  101      -49.646522    -45.927949   1.000000   1.000000
  102      -49.646496    -45.927928   1.000000   1.000000
  103      -49.646459    -45.927911   1.000000   1.000000
  104      -49.646434    -45.927867   1.000000   1.000000
  105      -49.646311    -45.927849   1.000000   1.000000
  106      -49.646285    -45.927824   1.000000   1.000000
  107      -49.646235    -45.927755   1.000000   1.000000
  108      -49.646166    -45.927739   1.000000   1.000000
  109      -49.646134    -45.927672   1.000000   1.000000
  110      -49.646122    -45.927652   1.000000   1.000000
  111      -49.646092    -45.927616   1.000000   1.000000
  112      -49.646072    -45.927547   1.000000   1.000000
  113      -49.646019    -45.927470   1.000000   1.000000
  114      -49.645993    -45.927428   1.000000   1.000000
  115      -49.645980    -45.927410   1.000000   1.000000
  116      -49.645961    -45.927402   1.000000   1.000000
  117      -49.645901    -45.927381   1.000000   1.000000
  118      -49.645881    -45.927369   1.000000   1.000000
  119      -49.645842    -45.927364   1.000000   1.000000
  120      -49.645811    -45.927361   1.000000   1.000000
  121      -49.645743    -45.927305   1.000000   1.000000
  122      -49.645676    -45.927290   1.000000   1.000000
  123      -49.645656    -45.927224   1.000000   1.000000
  124      -49.645626    -45.927194   1.000000   1.000000
  125      -49.645589    -45.927183   1.000000   1.000000
  126      -49.645582    -45.927176   1.000000   1.000000
  127      -49.645555    -45.927149   1.000000   1.000000
  128      -49.645550    -45.927138   1.000000   1.000000
  129      -49.645537    -45.927114   1.000000   1.000000
  130      -49.645528    -45.927082   1.000000   1.000000
  131      -49.645433    -45.927054   1.000000   1.000000
  132      -49.645417    -45.927030   1.000000   1.000000
  133      -49.645410    -45.927009   1.000000   1.000000
  134      -49.645359    -45.926986   1.000000   1.000000
  135      -49.645345    -45.926970   1.000000   1.000000
  136      -49.645330    -45.926956   1.000000   1.000000
  137      -49.645324    -45.926927   1.000000   1.000000
  138      -49.645303    -45.926912   1.000000   1.000000
  139      -49.645244    -45.926898   1.000000   1.000000
  140      -49.645236    -45.926872   1.000000   1.000000
  141      -49.645217    -45.926862   1.000000   1.000000
  142      -49.645211    -45.926822   1.000000   1.000000
  143      -49.645200    -45.926786   1.000000   1.000000
  144      -49.645179    -45.926765   1.000000   1.000000
  145      -49.645169    -45.926756   1.000000   1.000000
  146      -49.645145    -45.926727   1.000000   1.000000
  147      -49.645099    -45.926691   1.000000   1.000000
  148      -49.645072    -45.926671   1.000000   1.000000
  149      -49.645065    -45.926645   1.000000   1.000000
  150      -49.645000    -45.926612   1.000000   1.000000
  151      -49.644964    -45.926603   1.000000   1.000000
  152      -49.644947    -45.926582   1.000000   1.000000
  153      -49.644878    -45.926568   1.000000   1.000000
  154      -49.644857    -45.926527   1.000000   1.000000
  155      -49.644821    -45.926510   1.000000   1.000000
  156      -49.644789    -45.926497   1.000000   1.000000
  157      -49.644771    -45.926476   1.000000   1.000000
  158      -49.644747    -45.926444   1.000000   1.000000
  159      -49.644713    -45.926426   1.000000   1.000000
  160      -49.644694    -45.926414   1.000000   1.000000
  161      -49.644645    -45.926371   1.000000   1.000000
  162      -49.644636    -45.926365   1.000000   1.000000
  163      -49.644611    -45.926347   1.000000   1.000000
  164      -49.644563    -45.926333   1.000000   1.000000
  165      -49.644556    -45.926323   1.000000   1.000000
  166      -49.644519    -45.926305   1.000000   1.000000
  167      -49.644447    -45.926266   1.000000   1.000000
  168      -49.644426    -45.926259   1.000000   1.000000
  169      -49.644369    -45.926191   1.000000   1.000000
  170      -49.644348    -45.926168   1.000000   1.000000
  171      -49.644340    -45.926156   1.000000   1.000000
  172      -49.644264    -45.926131   1.000000   1.000000
  173      -49.644258    -45.926094   1.000000   1.000000
  174      -49.644238    -45.926062   1.000000   1.000000
  175      -49.644169    -45.926011   1.000000   1.000000
  176      -49.644137    -45.926000   1.000000   1.000000
  177      -49.644057    -45.925958   1.000000   1.000000
  178      -49.644039    -45.925944   1.000000   1.000000
  179      -49.644026    -45.925912   1.000000   1.000000
  180      -49.643995    -45.925883   1.000000   1.000000
  181      -49.643942    -45.925851   1.000000   1.000000
  182      -49.643928    -45.925810   1.000000   1.000000
  183      -49.643886    -45.925708   1.000000   1.000000
  184      -49.643852    -45.925658   1.000000   1.000000
  185      -49.643835    -45.925585   1.000000   1.000000
  186      -49.643745    -45.925558   1.000000   1.000000
  187      -49.643670    -45.925509   1.000000   1.000000
  188      -49.643605    -45.925467   1.000000   1.000000
  189      -49.643490    -45.925381   1.000000   1.000000
  190      -49.643421    -45.925313   1.000000   1.000000
  191      -49.643159    -45.925117   1.000000   1.000000
  192      -49.643101    -45.925006   1.000000   1.000000
  193      -39.641069    -39.640152   1.000000   1.000000
  194      -39.641043    -39.640125   1.000000   1.000000
  195      -39.633909    -39.633035   1.000000   1.000000
  196      -39.633472    -39.632600   1.000000   1.000000
  197      -39.633469    -39.632597   1.000000   1.000000
  198      -39.633396    -39.632524   1.000000   1.000000
  199      -39.633382    -39.632509   1.000000   1.000000
  200      -39.633361    -39.632489   1.000000   1.000000
  201      -39.633359    -39.632486   1.000000   1.000000
  202      -39.632814    -39.631941   1.000000   1.000000
  203      -39.627977    -39.627139   1.000000   1.000000
  204      -39.627924    -39.627086   1.000000   1.000000
  205      -39.627820    -39.626983   1.000000   1.000000
  206      -39.627786    -39.626948   1.000000   1.000000
  207      -39.627780    -39.626942   1.000000   1.000000
  208      -39.627717    -39.626879   1.000000   1.000000
  209      -39.627485    -39.626648   1.000000   1.000000
  210      -39.627377    -39.626538   1.000000   1.000000
  211      -39.616243    -39.615468   1.000000   1.000000
  212      -39.616225    -39.615451   1.000000   1.000000
  213      -39.616069    -39.615292   1.000000   1.000000
  214      -39.616008    -39.615232   1.000000   1.000000
  215      -39.615947    -39.615170   1.000000   1.000000
  216      -39.615651    -39.614872   1.000000   1.000000
  217      -39.615549    -39.614768   1.000000   1.000000
  218      -39.615541    -39.614761   1.000000   1.000000
  219      -39.615431    -39.614660   1.000000   1.000000
  220      -39.615303    -39.614532   1.000000   1.000000
  221      -39.615259    -39.614492   1.000000   1.000000
  222      -39.615256    -39.614489   1.000000   1.000000
  223      -39.615178    -39.614411   1.000000   1.000000
  224      -39.615177    -39.614410   1.000000   1.000000
  225      -39.615117    -39.614349   1.000000   1.000000
  226      -39.615048    -39.614280   1.000000   1.000000
  227      -39.615035    -39.614267   1.000000   1.000000
  228      -39.614974    -39.614205   1.000000   1.000000
  229      -39.614927    -39.614159   1.000000   1.000000
  230      -39.614925    -39.614157   1.000000   1.000000
  231      -39.614920    -39.614150   1.000000   1.000000
  232      -39.614877    -39.614108   1.000000   1.000000
  233      -39.614786    -39.614017   1.000000   1.000000
  234      -39.614657    -39.613893   1.000000   1.000000
  235      -39.614372    -39.613615   1.000000   1.000000
  236      -39.614308    -39.613551   1.000000   1.000000
  237      -39.614131    -39.613370   1.000000   1.000000
  238      -39.613306    -39.612542   1.000000   1.000000
  239      -39.604027    -39.603306   1.000000   1.000000
  240      -39.603946    -39.603226   1.000000   1.000000
  241      -39.603895    -39.603177   1.000000   1.000000
  242      -39.603823    -39.603104   1.000000   1.000000
  243      -39.603817    -39.603098   1.000000   1.000000
  244      -39.603794    -39.603075   1.000000   1.000000
  245      -39.603605    -39.602884   1.000000   1.000000
  246      -39.603455    -39.602736   1.000000   1.000000
  247      -39.599955    -39.599248   1.000000   1.000000
  248      -39.599631    -39.598926   1.000000   1.000000
  249      -39.599629    -39.598924   1.000000   1.000000
  250      -39.599530    -39.598824   1.000000   1.000000
  251      -39.599525    -39.598819   1.000000   1.000000
  252      -39.599513    -39.598807   1.000000   1.000000
  253      -39.599359    -39.598654   1.000000   1.000000
  254      -39.598964    -39.598257   1.000000   1.000000
  255      -39.593315    -39.592632   1.000000   1.000000
  256      -39.593152    -39.592469   1.000000   1.000000
  257      -12.747200    -12.467729   1.000000   1.000000
  258      -12.747024    -12.467546   1.000000   1.000000
  259      -12.719602    -12.439852   1.000000   1.000000
  260      -12.719412    -12.439651   1.000000   1.000000
  261      -12.719396    -12.439635   1.000000   1.000000
  262      -12.719268    -12.439523   1.000000   1.000000
  263      -12.719249    -12.439504   1.000000   1.000000
  264      -12.719209    -12.439450   1.000000   1.000000
  265      -12.719137    -12.439383   1.000000   1.000000
  266      -12.718712    -12.438937   1.000000   1.000000
  267      -12.697167    -12.416990   1.000000   1.000000
  268      -12.697067    -12.416896   1.000000   1.000000
  269      -12.694839    -12.415223   1.000000   1.000000
  270      -12.694685    -12.415083   1.000000   1.000000
  271      -12.694641    -12.415025   1.000000   1.000000
  272      -12.694598    -12.414983   1.000000   1.000000
  273      -12.692362    -12.413284   1.000000   1.000000
  274      -12.692221    -12.413169   1.000000   1.000000
  275      -12.691331    -12.411289   1.000000   1.000000
  276      -12.691178    -12.411151   1.000000   1.000000
  277      -12.691087    -12.411057   1.000000   1.000000
  278      -12.691007    -12.410977   1.000000   1.000000
  279      -12.672847    -12.392829   1.000000   1.000000
  280      -12.672609    -12.392586   1.000000   1.000000
  281      -12.672552    -12.392537   1.000000   1.000000
  282      -12.672424    -12.392407   1.000000   1.000000
  283      -12.667774    -12.388880   1.000000   1.000000
  284      -12.667533    -12.388634   1.000000   1.000000
  285      -12.667482    -12.388592   1.000000   1.000000
  286      -12.667339    -12.388438   1.000000   1.000000
  287      -12.654475    -12.374518   1.000000   1.000000
  288      -12.643695    -12.365966   1.000000   1.000000
  289       -7.800052     -7.599055   1.000000   1.000000
  290       -7.748256     -7.551536   1.000000   1.000000
  291       -7.505804     -7.319553   1.000000   1.000000
  292       -7.505435     -7.319182   1.000000   1.000000
  293       -7.505307     -7.319051   1.000000   1.000000
  294       -7.505007     -7.318744   1.000000   1.000000
  295       -7.501353     -7.309229   1.000000   1.000000
  296       -7.501020     -7.308881   1.000000   1.000000
  297       -7.500867     -7.308730   1.000000   1.000000
  298       -7.500597     -7.308449   1.000000   1.000000
  299       -7.315369     -7.117923   1.000000   1.000000
  300       -7.314989     -7.117531   1.000000   1.000000
  301       -7.297079     -7.093797   1.000000   1.000000
  302       -7.296992     -7.093719   1.000000   1.000000
  303       -7.296690     -7.093400   1.000000   1.000000
  304       -7.296594     -7.093313   1.000000   1.000000
  305       -7.269453     -7.062162   1.000000   1.000000
  306       -7.269073     -7.061771   1.000000   1.000000
  307       -7.088681     -6.894287   1.000000   1.000000
  308       -7.085065     -6.893868   1.000000   1.000000
  309       -7.084677     -6.893853   1.000000   1.000000
  310       -7.084650     -6.893465   1.000000   1.000000
  311       -7.084272     -6.796763   1.000000   1.000000
  312       -7.046602     -6.783836   1.000000   1.000000
  313       -7.000739     -6.768369   1.000000   1.000000
  314       -6.999875     -6.767930   1.000000   1.000000
  315       -6.999865     -6.767919   1.000000   1.000000
  316       -6.999771     -6.767538   1.000000   1.000000
  317       -6.999754     -6.767031   1.000000   1.000000
  318       -6.999703     -6.766191   1.000000   1.000000
  319       -6.999694     -6.766183   1.000000   1.000000
  320       -6.999061     -6.766087   1.000000   1.000000
  321       -6.994533     -6.766071   1.000000   1.000000
  322       -6.994263     -6.766017   1.000000   1.000000
  323       -6.994104     -6.766012   1.000000   1.000000
  324       -6.993753     -6.765304   1.000000   1.000000
  325       -6.956222     -6.745305   1.000000   1.000000
  326       -6.955788     -6.744968   1.000000   1.000000
  327       -6.955759     -6.744811   1.000000   1.000000
  328       -6.955408     -6.744491   1.000000   1.000000
  329       -6.948542     -6.697687   1.000000   1.000000
  330       -6.948142     -6.697269   1.000000   1.000000
  331       -6.929089     -6.689564   1.000000   1.000000
  332       -6.928683     -6.689144   1.000000   1.000000
  333       -6.928554     -6.689009   1.000000   1.000000
  334       -6.928248     -6.688699   1.000000   1.000000
  335       -6.911340     -6.640205   1.000000   1.000000
  336       -6.911321     -6.639140   1.000000   1.000000
  337       -6.885964     -6.639135   1.000000   1.000000
  338       -6.885824     -6.639039   1.000000   1.000000
  339       -6.885493     -6.639020   1.000000   1.000000
  340       -6.885447     -6.638970   1.000000   1.000000
  341       -6.877697     -6.638959   1.000000   1.000000
  342       -6.876919     -6.638691   1.000000   1.000000
  343       -6.876910     -6.638571   1.000000   1.000000
  344       -6.876817     -6.638443   1.000000   1.000000
  345       -6.876799     -6.638224   1.000000   1.000000
  346       -6.876746     -6.637700   1.000000   1.000000
  347       -6.876737     -6.628099   1.000000   1.000000
  348       -6.876033     -6.628082   1.000000   1.000000
  349       -6.832828     -6.586877   1.000000   1.000000
  350       -6.832425     -6.586456   1.000000   1.000000
  351       -6.794306     -6.499134   1.000000   1.000000
  352       -6.794282     -6.499103   1.000000   1.000000
  353       -1.525489     -0.414664   1.000000   1.000000
  354       -1.467877     -0.414536   1.000000   1.000000
  355       -1.467694     -0.414398   1.000000   1.000000
  356       -1.467545     -0.414369   1.000000   1.000000
  357       -1.467444      0.026206   1.000000   1.000000
  358       -1.460445      0.026325   1.000000   1.000000
  359       -1.460254      0.026514   1.000000   1.000000
  360       -1.460136      0.026565   1.000000   1.000000
  361       -1.460087      0.037758   1.000000   1.000000
  362       -1.421406      0.037909   1.000000   1.000000
  363       -1.421270      0.037965   1.000000   1.000000
  364       -1.382955      0.038069   1.000000   1.000000
  365       -1.382720      0.038111   1.000000   1.000000
  366       -1.382691      0.038237   1.000000   1.000000
  367       -1.382631      0.038285   1.000000   1.000000
  368       -1.332727      0.038322   1.000000   1.000000
  369       -1.332688      0.102917   1.000000   1.000000
  370       -1.332663      0.102965   1.000000   1.000000
  371       -1.332455      0.207411   1.000000   1.000000
  372       -1.332388      0.207566   1.000000   1.000000
  373       -1.332354      0.207658   1.000000   1.000000
  374       -1.332342      0.207706   1.000000   1.000000
  375       -1.332196      0.304217   1.000000   1.000000
  376       -1.292673      0.392440   1.000000   1.000000
  377       -1.292510      0.392561   1.000000   1.000000
  378       -1.292344      0.392740   1.000000   1.000000
  379       -1.292284      0.392826   1.000000   1.000000
  380       -1.256824      0.490931   1.000000   1.000000
  381       -1.256720      0.490955   1.000000   1.000000
  382       -1.232202      0.497410   1.000000   1.000000
  383       -1.232094      0.497643   1.000000   1.000000
  384       -1.220363      0.497722   1.000000   1.000000
  385       -0.822797      0.498040   1.000000   1.000000
  386       -0.822741      0.510592   1.000000   1.000000
  387       -0.822645      0.510717   1.000000   1.000000
  388       -0.822592      0.531096   1.000000   1.000000
  389       -0.722709      0.531242   1.000000   1.000000
  390       -0.722566      0.531265   1.000000   1.000000
  391       -0.699142      0.531330   1.000000   1.000000
  392       -0.699075      0.574012   1.000000   1.000000
  393       -0.698999      0.574272   1.000000   1.000000
  394       -0.698942      0.574312   1.000000   1.000000
  395       -0.688487      0.574392   1.000000   1.000000
  396       -0.688447      0.574431   1.000000   1.000000
  397       -0.688188      0.574460   1.000000   1.000000
  398       -0.688140      0.574489   1.000000   1.000000
  399       -0.666721      0.574621   1.000000   1.000000
  400       -0.666701      0.638664   1.000000   1.000000
  401       -0.666414      0.666150   1.000000   1.000000
  402       -0.666332      0.666494   1.000000   1.000000
  403       -0.651888      0.733076   1.000000   1.000000
  404       -0.651860      0.733222   1.000000   1.000000
  405       -0.651831      0.931309   1.000000   1.000000
  406       -0.651790      0.932505   1.000000   1.000000
  407       -0.589427      0.935505   1.000000   1.000000
  408       -0.589369      0.935775   1.000000   1.000000
  409       -0.576672      0.948786   1.000000   1.000000
  410       -0.576604      0.948898   1.000000   1.000000
  411       -0.576439      0.948977   1.000000   1.000000
  412       -0.576412      0.949125   1.000000   1.000000
  413       -0.553427      0.986127   1.000000   1.000000
  414       -0.553345      0.986190   1.000000   1.000000
  415       -0.552995      0.986212   1.000000   1.000000
  416       -0.552982      0.986296   1.000000   1.000000
  417       -0.497645      0.992768   1.000000   1.000000
  418       -0.496888      0.992963   1.000000   1.000000
  419       -0.472918      1.008747   1.000000   1.000000
  420       -0.472680      1.008959   1.000000   1.000000
  421       -0.461649      1.008974   1.000000   1.000000
  422       -0.461535      1.009229   1.000000   1.000000
  423       -0.461161      1.018423   1.000000   1.000000
  424       -0.461150      1.049071   1.000000   1.000000
  425       -0.459855      1.049220   1.000000   1.000000
  426       -0.459748      1.051599   1.000000   1.000000
  427       -0.459377      1.051674   1.000000   1.000000
  428       -0.459332      1.051810   1.000000   1.000000
  429       -0.410087      1.051894   1.000000   1.000000
  430       -0.409910      1.078710   1.000000   1.000000
  431       -0.407670      1.078763   1.000000   1.000000
  432       -0.407542      1.078874   1.000000   1.000000
  433       -0.407512      1.078981   1.000000   1.000000
  434       -0.407450      1.079840   1.000000   1.000000
  435       -0.407323      1.079857   1.000000   1.000000
  436       -0.407227      1.079989   1.000000   1.000000
  437       -0.383294      1.080067   1.000000   1.000000
  438       -0.383248      1.192729   1.000000   1.000000
  439       -0.378180      1.193081   1.000000   1.000000
  440       -0.368822      1.376586   1.000000   1.000000
  441       -0.368791      1.390506   1.000000   1.000000
  442       -0.368789      1.391150   1.000000   1.000000
  443       -0.368694      1.391211   1.000000   1.000000
  444       -0.368685      1.391314   1.000000   1.000000
  445       -0.368640      1.391358   1.000000   1.000000
  446       -0.368617      1.437470   1.000000   1.000000
  447       -0.368543      1.450369   1.000000   1.000000
  448       -0.353588      1.526275   1.000000   1.000000
  449       -0.353514      1.526406   1.000000   1.000000
  450       -0.349016      1.526479   1.000000   1.000000
  451       -0.341736      1.526763   1.000000   1.000000
  452       -0.335813      1.528838   1.000000   1.000000
  453       -0.335781      1.528967   1.000000   1.000000
  454       -0.335397      1.529033   1.000000   1.000000
  455       -0.335271      1.529458   1.000000   1.000000
  456       -0.334165      1.558227   1.000000   1.000000
  457       -0.334147      1.558256   1.000000   1.000000
  458       -0.334120      1.558372   1.000000   1.000000
  459       -0.334044      1.558439   1.000000   1.000000
  460       -0.324276      1.566683   1.000000   1.000000
  461       -0.324251      1.566685   1.000000   1.000000
  462       -0.323871      1.566944   1.000000   1.000000
  463       -0.323704      1.567074   1.000000   1.000000
  464       -0.321676      1.568181   1.000000   1.000000
  465       -0.321650      1.568224   1.000000   1.000000
  466       -0.321209      1.568510   1.000000   1.000000
  467       -0.321025      1.568648   1.000000   1.000000
  468       -0.303797      1.586438   1.000000   1.000000
  469       -0.295857      1.586764   1.000000   1.000000
  470       -0.288039      1.695532   1.000000   1.000000
  471       -0.287943      1.695822   1.000000   1.000000
  472       -0.287742      1.740776   1.000000   1.000000
  473       -0.287696      1.741091   1.000000   1.000000
  474       -0.280423      1.741208   1.000000   1.000000
  475       -0.280352      1.741378   1.000000   1.000000
  476       -0.275171      1.746645   1.000000   1.000000
  477       -0.275068      1.746850   1.000000   1.000000
  478       -0.274820      1.746889   1.000000   1.000000
  479       -0.274736      1.747587   1.000000   1.000000
  480       -0.241680      1.778987   1.000000   1.000000
  481       -0.241632      1.780598   1.000000   1.000000
  482       -0.241612      1.780671   1.000000   1.000000
  483       -0.241567      1.836855   1.000000   1.000000
  484       -0.241387      1.836956   1.000000   1.000000
  485       -0.241346      1.837358   1.000000   1.000000
  486       -0.241317      1.837384   1.000000   1.000000
  487       -0.241275      1.837740   1.000000   1.000000
  488       -0.207401      1.837859   1.000000   1.000000
  489       -0.207395      1.838419   1.000000   1.000000
  490       -0.199700      1.838494   1.000000   1.000000
  491       -0.199587      1.866182   1.000000   1.000000
  492       -0.199543      1.866387   1.000000   1.000000
  493       -0.199438      1.913325   1.000000   1.000000
  494       -0.194018      1.913438   1.000000   1.000000
  495       -0.193999      1.913519   1.000000   1.000000
  496       -0.163973      1.913569   1.000000   1.000000
  497       -0.163938      1.913600   1.000000   1.000000
  498       -0.163762      1.913609   1.000000   1.000000
  499       -0.163746      1.913714   1.000000   1.000000
  500       -0.156728      1.914172   1.000000   1.000000
  501       -0.156623      1.926775   1.000000   1.000000
  502       -0.156173      1.927001   1.000000   1.000000
  503       -0.156163      1.927085   1.000000   1.000000
  504       -0.139064      1.927272   1.000000   1.000000
  505       -0.139019      2.133204   1.000000   1.000000
  506       -0.138837      2.133362   1.000000   1.000000
  507       -0.138804      2.191246   1.000000   1.000000
  508       -0.091022      2.193180   1.000000   1.000000
  509       -0.090895      2.300592   1.000000   1.000000
  510       -0.082548      2.300768   1.000000   1.000000
  511       -0.082486      2.301105   1.000000   1.000000
  512       -0.082422      2.301140   1.000000   1.000000