 vasp.5.4.4.18Apr17-6-g9f103f2a35 (build Nov 25 2020 09:33:52) complex           
 POSCAR found type information on POSCAR  Fe Li O  S 
 04/POSCAR found :  4 types and      95 ions
 scaLAPACK will be used

 ----------------------------------------------------------------------------- 
|                                                                             |
|           W    W    AA    RRRRR   N    N  II  N    N   GGGG   !!!           |
|           W    W   A  A   R    R  NN   N  II  NN   N  G    G  !!!           |
|           W    W  A    A  R    R  N N  N  II  N N  N  G       !!!           |
|           W WW W  AAAAAA  RRRRR   N  N N  II  N  N N  G  GGG   !            |
|           WW  WW  A    A  R   R   N   NN  II  N   NN  G    G                |
|           W    W  A    A  R    R  N    N  II  N    N   GGGG   !!!           |
|                                                                             |
|      For optimal performance we recommend to set                            |
|        NCORE= 4 - approx SQRT( number of cores)                             |
|      NCORE specifies how many cores store one orbital (NPAR=cpu/NCORE).     |
|      This setting can  greatly improve the performance of VASP for DFT.     |
|      The default,   NCORE=1            might be grossly inefficient         |
|      on modern multi-core architectures or massively parallel machines.     |
|      Do your own testing !!!!                                               |
|      Unfortunately you need to use the default for GW and RPA calculations. |
|      (for HF NCORE is supported but not extensively tested yet)             |
|                                                                             |
 ----------------------------------------------------------------------------- 


 ----------------------------------------------------------------------------- 
|                                                                             |
|           W    W    AA    RRRRR   N    N  II  N    N   GGGG   !!!           |
|           W    W   A  A   R    R  NN   N  II  NN   N  G    G  !!!           |
|           W    W  A    A  R    R  N N  N  II  N N  N  G       !!!           |
|           W WW W  AAAAAA  RRRRR   N  N N  II  N  N N  G  GGG   !            |
|           WW  WW  A    A  R   R   N   NN  II  N   NN  G    G                |
|           W    W  A    A  R    R  N    N  II  N    N   GGGG   !!!           |
|                                                                             |
|      You have enabled k-point parallelism (KPAR>1).                         |
|      This developmental code was originally  written by Paul Kent at ORNL,  |
|      and carefully double checked in Vienna.                                |
|      GW as well as linear response parallelism added by Martijn Marsman     |
|      and Georg Kresse.                                                      |
|      Carefully verify results versus KPAR=1.                                |
|      Report problems to Paul Kent and Vienna.                               |
|                                                                             |
 ----------------------------------------------------------------------------- 


 ----------------------------------------------------------------------------- 
|                                                                             |
|  ADVICE TO THIS USER RUNNING 'VASP/VAMP'   (HEAR YOUR MASTER'S VOICE ...):  |
|                                                                             |
|      You have a (more or less) 'large supercell' and for larger cells       |
|      it might be more efficient to use real space projection opertators     |
|      So try LREAL= Auto  in the INCAR   file.                               |
|      Mind:          For very  accurate calculation you might also keep the  |
|      reciprocal projection scheme          (i.e. LREAL=.FALSE.)             |
|                                                                             |
 ----------------------------------------------------------------------------- 

 LDA part: xc-table for Pade appr. of Perdew
 POSCAR found type information on POSCAR  Fe Li O  S 
 00/POSCAR found :  4 types and      95 ions
 POSCAR found type information on POSCAR  Fe Li O  S 
 06/POSCAR found :  4 types and      95 ions
 Jacobian:    23.154902702064952     
 POSCAR, INCAR and KPOINTS ok, starting setup
 FFT: planning ...
 WAVECAR not read
 entering main loop
       N       E                     dE             d eps       ncg     rms          ort
DAV:   1     0.849696467226E+04    0.84970E+04   -0.33721E+05  3904   0.171E+03
DAV:   2     0.833463786678E+03   -0.76635E+04   -0.70243E+04  3904   0.462E+02
DAV:   3    -0.392492133497E+03   -0.12260E+04   -0.11624E+04  3904   0.192E+02
DAV:   4    -0.537207254612E+03   -0.14472E+03   -0.14187E+03  3904   0.495E+01
DAV:   5    -0.555619570287E+03   -0.18412E+02   -0.18004E+02  3904   0.148E+01
 gam= 0.000 g(H,U,f)=  0.170E+04 0.136E+04 0.349E+03 ort(H,U,f) = 0.000E+00 0.000E+00 0.000E+00
SDA:   6    -0.616341748592E+02    0.49399E+03   -0.18004E+02  3904   0.342E+04 0.000E+00
 gam= 0.000 trial= 0.400  step= 0.183 mean= 0.400
 gam= 0.173 g(H,U,f)=  0.221E+03 0.345E+03 0.248E+02 ort(H,U,f) = 0.120E+03-0.171E+03 0.235E+02
CGA:   7    -0.389905020227E+03   -0.32827E+03   -0.31188E+03  3904   0.591E+03-0.271E+02
 gam= 0.173 trial= 0.389  step= 0.135 mean= 0.389
 gam= 0.229 g(H,U,f)=  0.595E+02 0.703E+02 0.559E+01 ort(H,U,f) = 0.571E+02 0.271E+02 0.290E+00
CGA:   8    -0.440318717907E+03   -0.50414E+02   -0.39648E+02  3904   0.135E+03 0.846E+02
 gam= 0.229 trial= 0.376  step= 0.184 mean= 0.376
 gam= 1.102 g(H,U,f)=  0.238E+02 0.121E+03 0.441E+01 ort(H,U,f) = 0.940E+01-0.123E+02-0.726E+00
CGA:   9    -0.455818276054E+03   -0.15500E+02   -0.14249E+02  3904   0.149E+03-0.363E+01
 gam= 1.102 trial= 0.367  step= 0.122 mean= 0.367
 gam= 0.666 g(H,U,f)=  0.283E+02 0.668E+02 0.440E+01 ort(H,U,f) =-0.262E+02-0.309E+02-0.469E+01
CGA:  10    -0.462781769165E+03   -0.69635E+01   -0.88398E+01  3904   0.994E+02-0.618E+02
 gam= 0.666 trial= 0.355  step= 0.100 mean= 0.355
 gam= 0.498 g(H,U,f)=  0.324E+02 0.161E+02 0.109E+01 ort(H,U,f) =-0.436E+01-0.546E+01-0.337E+01
CGA:  11    -0.465855112136E+03   -0.30733E+01   -0.29090E+01  3904   0.495E+02-0.132E+02
 gam= 0.498 trial= 0.342  step= 0.180 mean= 0.342
 gam= 2.301 g(H,U,f)=  0.229E+02 0.849E+02 0.616E+01 ort(H,U,f) = 0.146E+02-0.158E+02-0.164E+01
CGA:  12    -0.469139395736E+03   -0.32843E+01   -0.38740E+01  3904   0.114E+03-0.290E+01
 gam= 2.301 trial= 0.334  step= 0.113 mean= 0.334
 gam= 0.848 g(H,U,f)=  0.176E+02 0.732E+02 0.577E+01 ort(H,U,f) =-0.141E+02-0.210E+02-0.756E+01
CGA:  13    -0.472279325772E+03   -0.31399E+01   -0.60414E+01  3904   0.966E+02-0.427E+02
 gam= 0.848 trial= 0.323  step= 0.056 mean= 0.323
 gam= 0.322 g(H,U,f)=  0.139E+02 0.163E+02 0.965E+00 ort(H,U,f) =-0.177E+02 0.827E+01-0.141E+01
CGA:  14    -0.473820203021E+03   -0.15409E+01   -0.16887E+01  3904   0.311E+02-0.109E+02
 gam= 0.322 trial= 0.309  step= 0.062 mean= 0.309
 gam= 0.936 g(H,U,f)=  0.112E+02 0.166E+02 0.139E+01 ort(H,U,f) = 0.348E+01-0.746E+01-0.556E+00
CGA:  15    -0.474610134220E+03   -0.78993E+00   -0.85566E+00  3904   0.292E+02-0.453E+01
 gam= 0.936 trial= 0.297  step= 0.106 mean= 0.297
 gam= 2.120 g(H,U,f)=  0.109E+02 0.478E+02 0.311E+01 ort(H,U,f) = 0.498E+01-0.949E+01 0.495E+00
CGA:  16    -0.475633308268E+03   -0.10232E+01   -0.13178E+01  3904   0.618E+02-0.401E+01
 gam= 2.120 trial= 0.287  step= 0.078 mean= 0.287
 gam= 1.193 g(H,U,f)=  0.977E+01 0.614E+02 0.252E+01 ort(H,U,f) =-0.710E+01-0.352E+01-0.134E+01
CGA:  17    -0.477545766155E+03   -0.19125E+01   -0.20867E+01  3904   0.737E+02-0.120E+02
 gam= 1.193 trial= 0.277  step= 0.051 mean= 0.277
 gam= 0.373 g(H,U,f)=  0.755E+01 0.192E+02 0.735E+00 ort(H,U,f) =-0.260E+02-0.752E+01-0.417E+00
CGA:  18    -0.478137295712E+03   -0.59153E+00   -0.15083E+01  3904   0.275E+02-0.339E+02
 gam= 0.373 trial= 0.266  step= 0.050 mean= 0.266
 gam= 0.697 g(H,U,f)=  0.709E+01 0.116E+02 0.508E+00 ort(H,U,f) =-0.574E+01 0.162E+00 0.620E-01
CGA:  19    -0.478356386144E+03   -0.21909E+00   -0.37297E+00  3904   0.192E+02-0.551E+01
 gam= 0.697 trial= 0.255  step= 0.104 mean= 0.255
 gam= 1.576 g(H,U,f)=  0.742E+01 0.220E+02 0.830E+00 ort(H,U,f) =-0.451E+00-0.197E+01-0.214E+00
CGA:  20    -0.478934379822E+03   -0.57799E+00   -0.79726E+00  3904   0.302E+02-0.263E+01
 gam= 1.576 trial= 0.247  step= 0.133 mean= 0.247
 gam= 1.273 g(H,U,f)=  0.801E+01 0.289E+02 0.155E+01 ort(H,U,f) =-0.281E+01 0.173E+01-0.820E+00
CGA:  21    -0.480554329672E+03   -0.16199E+01   -0.17382E+01  3904   0.385E+02-0.190E+01
 gam= 1.273 trial= 0.242  step= 0.103 mean= 0.242
 gam= 0.651 g(H,U,f)=  0.645E+01 0.174E+02 0.123E+01 ort(H,U,f) =-0.806E+01 0.451E+01-0.845E-01
CGA:  22    -0.482312458070E+03   -0.17581E+01   -0.18625E+01  3904   0.251E+02-0.364E+01
 gam= 0.651 trial= 0.235  step= 0.136 mean= 0.235
 gam= 0.879 g(H,U,f)=  0.713E+01 0.141E+02 0.799E+00 ort(H,U,f) =-0.582E+01 0.538E+01 0.128E+00
CGA:  23    -0.483632076403E+03   -0.13196E+01   -0.15416E+01  3904   0.220E+02-0.306E+00
 gam= 0.879 trial= 0.230  step= 0.188 mean= 0.230
 gam= 0.918 g(H,U,f)=  0.880E+01 0.112E+02 0.243E+00 ort(H,U,f) =-0.374E+01 0.515E+01-0.242E-01
CGA:  24    -0.485586482303E+03   -0.19544E+01   -0.20513E+01  3904   0.202E+02 0.138E+01
 gam= 0.918 trial= 0.228  step= 0.242 mean= 0.228
 gam= 0.654 g(H,U,f)=  0.617E+01 0.673E+01 0.328E+00 ort(H,U,f) =-0.103E+01 0.169E+01 0.511E-01
CGA:  25    -0.488202320011E+03   -0.26158E+01   -0.26060E+01  3904   0.132E+02 0.713E+00
 gam= 0.654 trial= 0.228  step= 0.304 mean= 0.228
 gam= 0.755 g(H,U,f)=  0.408E+01 0.578E+01 0.121E+00 ort(H,U,f) =-0.157E+00 0.731E+00-0.138E-01
CGA:  26    -0.490310194346E+03   -0.21079E+01   -0.20779E+01  3904   0.999E+01 0.559E+00
 gam= 0.755 trial= 0.232  step= 0.295 mean= 0.232
 gam= 0.774 g(H,U,f)=  0.281E+01 0.453E+01 0.387E+00 ort(H,U,f) =-0.774E+00 0.709E+00-0.741E-01
CGA:  27    -0.491852972012E+03   -0.15428E+01   -0.15365E+01  3904   0.773E+01-0.139E+00
 gam= 0.774 trial= 0.235  step= 0.272 mean= 0.235
 gam= 0.774 g(H,U,f)=  0.233E+01 0.319E+01 0.456E+00 ort(H,U,f) =-0.702E+00 0.136E+01-0.293E+00
CGA:  28    -0.492899594917E+03   -0.10466E+01   -0.10355E+01  3904   0.598E+01 0.362E+00
 gam= 0.774 trial= 0.237  step= 0.269 mean= 0.237
 gam= 0.643 g(H,U,f)=  0.182E+01 0.195E+01 0.752E-01 ort(H,U,f) =-0.379E+00 0.119E+01-0.668E-01
CGA:  29    -0.493763157415E+03   -0.86356E+00   -0.84312E+00  3904   0.384E+01 0.744E+00
 gam= 0.643 trial= 0.239  step= 0.301 mean= 0.239
 gam= 0.000 g(H,U,f)=  0.181E+01 0.613E+01 0.446E+01 ort(H,U,f) =-0.272E+00-0.695E+00-0.236E+01
CGA:  30    -0.494274372401E+03   -0.51121E+00   -0.65159E+00  3904   0.124E+02-0.332E+01
 gam= 0.000 trial= 0.242  step= 0.135 mean= 0.242
 gam= 0.214 g(H,U,f)=  0.105E+01 0.152E+01 0.812E-01 ort(H,U,f) = 0.273E+00-0.304E+00-0.187E+00
CGA:  31    -0.494739939994E+03   -0.46557E+00   -0.83891E+00  3904   0.266E+01-0.218E+00
 gam= 0.214 trial= 0.237  step= 0.532 mean= 0.237
 gam= 0.000 g(H,U,f)=  0.404E+01 0.127E+02 0.241E+02 ort(H,U,f) =-0.781E+00-0.188E+01-0.314E+01
CGA:  32    -0.494526090849E+03    0.21385E+00   -0.69464E+00  3904   0.408E+02-0.581E+01
 gam= 0.000 trial= 0.251  step= 0.125 mean= 0.251
 gam= 0.061 g(H,U,f)=  0.607E+00 0.122E+01 0.676E+00 ort(H,U,f) =-0.894E+00-0.196E+01-0.119E+01
CGA:  33    -0.495600050669E+03   -0.10740E+01   -0.25535E+01  3904   0.250E+01-0.404E+01
 gam= 0.061 trial= 0.245  step= 0.199 mean= 0.245
 gam= 0.461 g(H,U,f)=  0.237E+00 0.883E+00 0.313E-01 ort(H,U,f) = 0.124E-02-0.104E+00 0.326E-02
CGA:  34    -0.495833152475E+03   -0.23310E+00   -0.22407E+00  3904   0.115E+01-0.100E+00
 gam= 0.461 trial= 0.243  step= 0.495 mean= 0.243
 gam= 1.313 g(H,U,f)=  0.584E+00 0.625E+00 0.304E+00 ort(H,U,f) =-0.261E+00-0.117E-01 0.104E+00
CGA:  35    -0.496079427953E+03   -0.24628E+00   -0.27376E+00  3904   0.151E+01-0.169E+00
 gam= 1.313 trial= 0.255  step=-2.750 mean= 0.255
 BOPT < 0, no correction made
 gam= 0.000 g(H,U,f)=  0.165E+00 0.184E+00 0.192E+00 ort(H,U,f) = 0.628E-01 0.435E+00 0.478E+00
CGA:  36    -0.496424179742E+03   -0.34475E+00    0.17737E+01  3904   0.542E+00 0.976E+00
 gam= 0.000 trial= 0.255  step= 0.907 mean= 0.255
 gam= 0.000 g(H,U,f)=  0.823E+01 0.121E+02 0.225E+02 ort(H,U,f) =-0.871E+00-0.668E+00-0.442E+01
CGA:  37    -0.494770953043E+03    0.16532E+01   -0.24556E+00  3904   0.429E+02-0.596E+01
 gam= 0.000 trial= 0.288  step= 0.127 mean= 0.288
 gam= 0.350 g(H,U,f)=  0.401E+01 0.741E+01 0.357E+01 ort(H,U,f) =-0.354E+01-0.846E+01-0.447E+01
CGA:  38    -0.495694037958E+03   -0.92308E+00   -0.27232E+01  3904   0.150E+02-0.165E+02
 gam= 0.350 trial= 0.280  step= 0.100 mean= 0.280
 gam= 0.000 g(H,U,f)=  0.279E+00 0.625E+00 0.260E+01 ort(H,U,f) = 0.699E+00 0.150E+01 0.546E+01
CGA:  39    -0.496779536006E+03   -0.10855E+01   -0.46241E+00  3904   0.351E+01 0.765E+01
 gam= 0.000 trial= 0.271  step= 0.061 mean= 0.271
 gam= 0.068 g(H,U,f)=  0.527E-01 0.174E+00 0.117E-01 ort(H,U,f) =-0.366E-01-0.880E-01 0.558E-01
CGA:  40    -0.496890860664E+03   -0.11132E+00   -0.10732E+00  3904   0.238E+00-0.687E-01
 gam= 0.068 trial= 0.260  step= 0.779 mean= 0.260
 gam= 1.054 g(H,U,f)=  0.130E+00 0.115E+00 0.549E-02 ort(H,U,f) =-0.438E-01 0.523E-01 0.657E-02
CGA:  41    -0.496986475137E+03   -0.95614E-01   -0.90915E-01  3904   0.251E+00 0.150E-01
 gam= 1.054 trial= 0.286  step= 0.577 mean= 0.286
 gam= 3.488 g(H,U,f)=  0.879E-01 0.564E-01 0.732E+00 ort(H,U,f) =-0.410E-01-0.812E-02 0.287E-01
CGA:  42    -0.497061222165E+03   -0.74747E-01   -0.77008E-01  3904   0.876E+00-0.205E-01
 gam= 3.488 trial= 0.301  step= 0.127 mean= 0.301
 gam= 0.480 g(H,U,f)=  0.138E+00 0.163E+00 0.119E+00 ort(H,U,f) =-0.133E+00 0.174E+00-0.248E+00
CGA:  43    -0.497088504748E+03   -0.27283E-01   -0.50933E-01  3904   0.420E+00-0.207E+00
 gam= 0.480 trial= 0.292  step= 0.157 mean= 0.292
 gam= 1.093 g(H,U,f)=  0.121E+00 0.783E-01 0.260E+00 ort(H,U,f) =-0.238E-01 0.509E-01-0.211E-01
CGA:  44    -0.497114909396E+03   -0.26405E-01   -0.25168E-01  3904   0.459E+00 0.598E-02
 gam= 1.093 trial= 0.285  step= 0.303 mean= 0.285
 gam= 0.460 g(H,U,f)=  0.954E-01 0.103E+00 0.126E-01 ort(H,U,f) =-0.846E-01 0.183E+00-0.401E-01
CGA:  45    -0.497186477902E+03   -0.71569E-01   -0.70634E-01  3904   0.211E+00 0.580E-01
 gam= 0.460 trial= 0.286  step= 0.396 mean= 0.286
 gam= 3.447 g(H,U,f)=  0.110E+00 0.666E-01 0.552E+00 ort(H,U,f) =-0.311E-01-0.927E-02 0.507E-01
CGA:  46    -0.497234410833E+03   -0.47933E-01   -0.47147E-01  3904   0.729E+00 0.103E-01
 gam= 3.447 trial= 0.292  step= 0.093 mean= 0.292
 gam= 0.620 g(H,U,f)=  0.117E+00 0.840E-01 0.251E+00 ort(H,U,f) =-0.119E+00-0.106E+00 0.292E+00
CGA:  47    -0.497274846592E+03   -0.40436E-01   -0.35519E-01  3904   0.452E+00 0.677E-01
 gam= 0.620 trial= 0.282  step= 0.114 mean= 0.282
 gam= 0.568 g(H,U,f)=  0.131E+00 0.122E+00 0.345E-02 ort(H,U,f) =-0.676E-02-0.982E-01 0.169E-02
CGA:  48    -0.497286549850E+03   -0.11703E-01   -0.28250E-01  3904   0.256E+00-0.103E+00
 gam= 0.568 trial= 0.273  step= 0.309 mean= 0.273
 gam= 0.578 g(H,U,f)=  0.519E-01 0.956E-01 0.611E-03 ort(H,U,f) = 0.151E-03 0.657E-02-0.492E-03
CGA:  49    -0.497317297259E+03   -0.30747E-01   -0.30540E-01  3904   0.148E+00 0.623E-02
 gam= 0.578 trial= 0.275  step= 0.317 mean= 0.275
 gam= 0.685 g(H,U,f)=  0.658E-01 0.356E-01 0.193E-03 ort(H,U,f) =-0.473E-01 0.477E-01 0.116E-03
CGA:  50    -0.497341344952E+03   -0.24048E-01   -0.24028E-01  3904   0.102E+00 0.572E-03
 gam= 0.685 trial= 0.277  step= 0.531 mean= 0.277
 gam= 1.354 g(H,U,f)=  0.100E+00 0.371E-01 0.168E-03 ort(H,U,f) =-0.181E-01 0.194E-01-0.143E-04
CGA:  51    -0.497368543535E+03   -0.27199E-01   -0.27045E-01  3904   0.138E+00 0.130E-02
 gam= 1.354 trial= 0.290  step= 0.397 mean= 0.290
 gam= 0.668 g(H,U,f)=  0.619E-01 0.298E-01 0.141E-03 ort(H,U,f) =-0.325E-01 0.311E-01-0.664E-03
CGA:  52    -0.497396049207E+03   -0.27506E-01   -0.27642E-01  3904   0.918E-01-0.209E-02
 gam= 0.668 trial= 0.295  step= 0.359 mean= 0.295
 gam= 0.857 g(H,U,f)=  0.544E-01 0.239E-01 0.429E-03 ort(H,U,f) =-0.276E-01 0.280E-01-0.157E-02
CGA:  53    -0.497412243581E+03   -0.16194E-01   -0.16249E-01  3904   0.787E-01-0.121E-02
 gam= 0.857 trial= 0.299  step= 0.441 mean= 0.299
 gam= 1.096 g(H,U,f)=  0.587E-01 0.269E-01 0.711E-03 ort(H,U,f) =-0.206E-01 0.228E-01-0.243E-02
CGA:  54    -0.497429342869E+03   -0.17099E-01   -0.17119E-01  3904   0.863E-01-0.224E-03
 gam= 1.096 trial= 0.306  step= 0.377 mean= 0.306
 gam= 0.769 g(H,U,f)=  0.405E-01 0.249E-01 0.993E-03 ort(H,U,f) =-0.214E-01 0.256E-01-0.362E-02
CGA:  55    -0.497445583198E+03   -0.16240E-01   -0.16217E-01  3904   0.664E-01 0.570E-03
 gam= 0.769 trial= 0.309  step= 0.380 mean= 0.309
 gam= 0.952 g(H,U,f)=  0.377E-01 0.226E-01 0.290E-02 ort(H,U,f) =-0.223E-01 0.263E-01-0.457E-02
CGA:  56    -0.497458248618E+03   -0.12665E-01   -0.12694E-01  3904   0.632E-01-0.519E-03
 gam= 0.952 trial= 0.313  step= 0.458 mean= 0.313
 gam= 1.339 g(H,U,f)=  0.515E-01 0.236E-01 0.948E-02 ort(H,U,f) =-0.219E-01 0.263E-01-0.653E-02
CGA:  57    -0.497472426033E+03   -0.14177E-01   -0.14358E-01  3904   0.846E-01-0.213E-02
 gam= 1.339 trial= 0.320  step= 0.382 mean= 0.320
 gam= 0.979 g(H,U,f)=  0.507E-01 0.201E-01 0.121E-01 ort(H,U,f) =-0.267E-01 0.302E-01-0.381E-02
CGA:  58    -0.497488035267E+03   -0.15609E-01   -0.15625E-01  3904   0.828E-01-0.338E-03
 gam= 0.979 trial= 0.323  step= 0.350 mean= 0.323
 gam= 0.924 g(H,U,f)=  0.508E-01 0.217E-01 0.399E-02 ort(H,U,f) =-0.277E-01 0.260E-01 0.235E-02
CGA:  59    -0.497502485536E+03   -0.14450E-01   -0.14435E-01  3904   0.765E-01 0.706E-03
 gam= 0.924 trial= 0.324  step= 0.423 mean= 0.324
 gam= 1.065 g(H,U,f)=  0.588E-01 0.213E-01 0.140E-02 ort(H,U,f) =-0.250E-01 0.228E-01 0.232E-02
CGA:  60    -0.497518794203E+03   -0.16309E-01   -0.16304E-01  3904   0.815E-01 0.140E-03
 gam= 1.065 trial= 0.329  step= 0.366 mean= 0.329
 gam= 0.879 g(H,U,f)=  0.473E-01 0.211E-01 0.326E-02 ort(H,U,f) =-0.179E-01 0.127E-01 0.421E-02
CGA:  61    -0.497533713578E+03   -0.14919E-01   -0.14950E-01  3904   0.717E-01-0.993E-03
 gam= 0.879 trial= 0.331  step= 0.336 mean= 0.331
 gam= 0.817 g(H,U,f)=  0.347E-01 0.216E-01 0.225E-02 ort(H,U,f) =-0.146E-01 0.108E-01 0.335E-02
CGA:  62    -0.497545616965E+03   -0.11903E-01   -0.11905E-01  3904   0.586E-01-0.427E-03
 gam= 0.817 trial= 0.331  step= 0.314 mean= 0.331
 gam= 0.721 g(H,U,f)=  0.284E-01 0.136E-01 0.282E-03 ort(H,U,f) =-0.112E-01 0.120E-01 0.532E-03
CGA:  63    -0.497554736457E+03   -0.91195E-02   -0.91440E-02  3904   0.422E-01 0.125E-02
 gam= 0.721 trial= 0.331  step= 0.357 mean= 0.331
 gam= 0.772 g(H,U,f)=  0.211E-01 0.114E-01 0.764E-04 ort(H,U,f) =-0.627E-02 0.692E-02-0.431E-04
CGA:  64    -0.497562452523E+03   -0.77161E-02   -0.77021E-02  3904   0.326E-01 0.603E-03
 gam= 0.772 trial= 0.332  step= 0.381 mean= 0.332
 gam= 0.752 g(H,U,f)=  0.166E-01 0.782E-02 0.529E-04 ort(H,U,f) =-0.628E-02 0.636E-02 0.580E-05
CGA:  65    -0.497568749823E+03   -0.62973E-02   -0.62954E-02  3904   0.245E-01 0.815E-04
 gam= 0.752 trial= 0.334  step= 0.347 mean= 0.334
 gam= 0.678 g(H,U,f)=  0.117E-01 0.487E-02 0.377E-04 ort(H,U,f) =-0.374E-02 0.369E-02 0.246E-05
CGA:  66    -0.497573007274E+03   -0.42575E-02   -0.42582E-02  3904   0.166E-01-0.461E-04
 gam= 0.678 trial= 0.335  step= 0.362 mean= 0.335
 gam= 0.772 g(H,U,f)=  0.849E-02 0.429E-02 0.420E-04 ort(H,U,f) =-0.227E-02 0.229E-02-0.267E-04
CGA:  67    -0.497576009421E+03   -0.30021E-02   -0.30025E-02  3904   0.128E-01-0.141E-04
 gam= 0.772 trial= 0.336  step= 0.356 mean= 0.336
 gam= 0.682 g(H,U,f)=  0.627E-02 0.245E-02 0.241E-04 ort(H,U,f) =-0.175E-02 0.174E-02 0.320E-05
CGA:  68    -0.497578286295E+03   -0.22769E-02   -0.22768E-02  3904   0.875E-02 0.125E-05
 gam= 0.682 trial= 0.337  step= 0.333 mean= 0.337
 gam= 0.649 g(H,U,f)=  0.361E-02 0.204E-02 0.265E-04 ort(H,U,f) =-0.949E-03 0.919E-03 0.177E-04
CGA:  69    -0.497579743705E+03   -0.14574E-02   -0.14574E-02  3904   0.568E-02-0.129E-04
 gam= 0.649 trial= 0.337  step= 0.372 mean= 0.337
 gam= 0.000 g(H,U,f)=  0.298E-02 0.173E-02 0.140E-04 ort(H,U,f) =-0.121E-02 0.118E-02 0.368E-05
SDA:  70    -0.497580797797E+03   -0.10541E-02   -0.10546E-02  3904   0.473E-02-0.255E-04
 gam= 0.000 trial= 0.339  step= 0.468 mean= 0.339
 gam= 0.420 g(H,U,f)=  0.994E-03 0.982E-03 0.120E-04 ort(H,U,f) =-0.421E-03 0.424E-03-0.328E-05
CGA:  71    -0.497581904253E+03   -0.11065E-02   -0.11065E-02  3904   0.199E-02-0.357E-06
 gam= 0.420 trial= 0.345  step= 1.048 mean= 0.345
 gam= 0.728 g(H,U,f)=  0.911E-03 0.532E-03 0.523E-05 ort(H,U,f) =-0.704E-03 0.713E-03 0.354E-05
CGA:  72    -0.497582949905E+03   -0.10457E-02   -0.10414E-02  3904   0.145E-02 0.127E-04
 gam= 0.728 trial= 0.380  step= 1.218 mean= 0.380
 gam= 1.203 g(H,U,f)=  0.105E-02 0.674E-03 0.194E-04 ort(H,U,f) =-0.430E-03 0.439E-03-0.127E-04
CGA:  73    -0.497583836296E+03   -0.88639E-03   -0.88756E-03  3904   0.174E-02-0.362E-05
 gam= 1.203 trial= 0.422  step= 0.959 mean= 0.422
 gam= 1.038 g(H,U,f)=  0.997E-03 0.791E-03 0.200E-04 ort(H,U,f) =-0.468E-03 0.478E-03-0.169E-04
CGA:  74    -0.497584668088E+03   -0.83179E-03   -0.83354E-03  3904   0.181E-02-0.722E-05
 gam= 1.038 trial= 0.449  step= 1.027 mean= 0.449
 gam= 1.210 g(H,U,f)=  0.121E-02 0.962E-03 0.200E-04 ort(H,U,f) =-0.583E-03 0.606E-03-0.124E-04
CGA:  75    -0.497585595683E+03   -0.92760E-03   -0.92461E-03  3904   0.219E-02 0.991E-05
 gam= 1.210 trial= 0.478  step= 1.338 mean= 0.478
 gam= 1.009 g(H,U,f)=  0.153E-02 0.672E-03 0.931E-05 ort(H,U,f) =-0.772E-03 0.788E-03 0.112E-06
CGA:  76    -0.497587076362E+03   -0.14807E-02   -0.14720E-02  3904   0.221E-02 0.153E-04
 gam= 1.009 trial= 0.521  step= 1.064 mean= 0.521
 gam= 0.852 g(H,U,f)=  0.133E-02 0.536E-03 0.130E-04 ort(H,U,f) =-0.498E-03 0.419E-03 0.108E-05
CGA:  77    -0.497588241682E+03   -0.11653E-02   -0.11832E-02  3904   0.188E-02-0.776E-04
 gam= 0.852 trial= 0.548  step= 0.643 mean= 0.548
 gam= 0.410 g(H,U,f)=  0.530E-03 0.237E-03 0.436E-05 ort(H,U,f) =-0.228E-03 0.216E-03-0.232E-05
CGA:  78    -0.497588823865E+03   -0.58218E-03   -0.58314E-03  3904   0.772E-03-0.145E-04
 gam= 0.410 trial= 0.553  step= 0.770 mean= 0.553
 gam= 0.572 g(H,U,f)=  0.281E-03 0.159E-03 0.159E-05 ort(H,U,f) =-0.597E-04 0.907E-04-0.134E-05
CGA:  79    -0.497589122242E+03   -0.29838E-03   -0.29504E-03  3904   0.442E-03 0.297E-04
 gam= 0.572 trial= 0.564  step= 0.658 mean= 0.564
 gam= 0.623 g(H,U,f)=  0.164E-03 0.111E-03 0.111E-05 ort(H,U,f) =-0.658E-04 0.950E-04-0.583E-06
CGA:  80    -0.497589275171E+03   -0.15293E-03   -0.15097E-03  3904   0.275E-03 0.286E-04
 gam= 0.623 trial= 0.568  step= 0.837 mean= 0.568
 gam= 0.933 g(H,U,f)=  0.166E-03 0.903E-04 0.441E-06 ort(H,U,f) =-0.571E-04 0.980E-04-0.198E-06
CGA:  81    -0.497589403423E+03   -0.12825E-03   -0.12263E-03  3904   0.257E-03 0.407E-04
 gam= 0.933 trial= 0.582  step= 0.666 mean= 0.582
 gam= 0.913 g(H,U,f)=  0.159E-03 0.753E-04 0.570E-06 ort(H,U,f) =-0.451E-04 0.946E-04-0.320E-06
CGA:  82    -0.497589504713E+03   -0.10129E-03   -0.98253E-04  3904   0.235E-03 0.492E-04
 gam= 0.913 trial= 0.586  step= 0.567 mean= 0.586
 gam= 0.639 g(H,U,f)=  0.102E-03 0.474E-04 0.285E-06 ort(H,U,f) =-0.471E-04 0.792E-04 0.471E-07
CGA:  83    -0.497589583405E+03   -0.78693E-04   -0.79288E-04  3904   0.150E-03 0.321E-04
 gam= 0.639 trial= 0.585  step= 0.637 mean= 0.585
 gam= 0.756 g(H,U,f)=  0.773E-04 0.359E-04 0.182E-06 ort(H,U,f) =-0.295E-04 0.492E-04-0.819E-07
CGA:  84    -0.497589638461E+03   -0.55056E-04   -0.54233E-04  3904   0.113E-03 0.196E-04
 gam= 0.756 trial= 0.588  step= 0.614 mean= 0.588
 gam= 0.567 g(H,U,f)=  0.429E-04 0.210E-04 0.345E-06 ort(H,U,f) =-0.195E-04 0.314E-04-0.318E-06
CGA:  85    -0.497589678067E+03   -0.39606E-04   -0.39340E-04  3904   0.642E-04 0.116E-04
 gam= 0.567 trial= 0.589  step= 0.652 mean= 0.589
 gam= 0.641 g(H,U,f)=  0.259E-04 0.151E-04 0.135E-06 ort(H,U,f) =-0.976E-05 0.187E-04 0.396E-08
CGA:  86    -0.497589701556E+03   -0.23489E-04   -0.23069E-04  3904   0.412E-04 0.895E-05
 gam= 0.641 trial= 0.592  step= 0.787 mean= 0.592
 gam= 0.835 g(H,U,f)=  0.207E-04 0.134E-04 0.213E-06 ort(H,U,f) =-0.947E-05 0.140E-04-0.389E-07
CGA:  87    -0.497589720600E+03   -0.19044E-04   -0.18445E-04  3904   0.344E-04 0.450E-05
 gam= 0.835 trial= 0.602  step= 0.788 mean= 0.602
 gam= 0.963 g(H,U,f)=  0.226E-04 0.104E-04 0.877E-07 ort(H,U,f) =-0.974E-05 0.126E-04-0.739E-07
CGA:  88    -0.497589735971E+03   -0.15371E-04   -0.15033E-04  3904   0.331E-04 0.276E-05
 gam= 0.963 trial= 0.611  step= 0.832 mean= 0.611
 gam= 0.953 g(H,U,f)=  0.195E-04 0.120E-04 0.509E-07 ort(H,U,f) =-0.761E-05 0.114E-04-0.668E-07
CGA:  89    -0.497589751369E+03   -0.15397E-04   -0.14893E-04  3904   0.316E-04 0.376E-05
 gam= 0.953 trial= 0.622  step= 0.645 mean= 0.622
 gam= 0.979 g(H,U,f)=  0.176E-04 0.132E-04 0.113E-06 ort(H,U,f) =-0.756E-05 0.132E-04-0.103E-06
CGA:  90    -0.497589762813E+03   -0.11444E-04   -0.11347E-04  3904   0.309E-04 0.555E-05
 gam= 0.979 trial= 0.623  step= 0.802 mean= 0.623
 gam= 1.043 g(H,U,f)=  0.197E-04 0.125E-04 0.793E-07 ort(H,U,f) =-0.102E-04 0.161E-04-0.216E-07
CGA:  91    -0.497589778170E+03   -0.15357E-04   -0.14569E-04  3904   0.322E-04 0.585E-05
 gam= 1.043 trial= 0.632  step= 0.970 mean= 0.632
 gam= 1.608 g(H,U,f)=  0.335E-04 0.182E-04 0.131E-06 ort(H,U,f) =-0.151E-04 0.149E-04-0.398E-08
CGA:  92    -0.497589796629E+03   -0.18459E-04   -0.18583E-04  3904   0.518E-04-0.228E-06
 gam= 1.608 trial= 0.649  step= 0.539 mean= 0.649
 gam= 0.834 g(H,U,f)=  0.311E-04 0.121E-04 0.347E-07 ort(H,U,f) =-0.156E-04 0.187E-04 0.112E-07
CGA:  93    -0.497589810489E+03   -0.13860E-04   -0.13858E-04  3904   0.432E-04 0.313E-05
 gam= 0.834 trial= 0.644  step= 0.575 mean= 0.644
 gam= 0.797 g(H,U,f)=  0.223E-04 0.120E-04 0.111E-06 ort(H,U,f) =-0.795E-05 0.979E-05-0.780E-07
CGA:  94    -0.497589823605E+03   -0.13116E-04   -0.13174E-04  3904   0.344E-04 0.177E-05
 gam= 0.797 trial= 0.640  step= 0.583 mean= 0.640
 gam= 0.736 g(H,U,f)=  0.165E-04 0.881E-05 0.479E-07 ort(H,U,f) =-0.551E-05 0.663E-05-0.455E-07
CGA:  95    -0.497589834044E+03   -0.10439E-04   -0.10433E-04  3904   0.253E-04 0.108E-05
 gam= 0.736 trial= 0.637  step= 0.623 mean= 0.637
 gam= 0.800 g(H,U,f)=  0.141E-04 0.614E-05 0.483E-07 ort(H,U,f) =-0.515E-05 0.339E-05-0.209E-07
CGA:  96    -0.497589842199E+03   -0.81542E-05   -0.81297E-05  3904   0.202E-04-0.178E-05
 gam= 0.800 trial= 0.637  step= 0.605 mean= 0.637
 gam= 0.763 g(H,U,f)=  0.106E-04 0.482E-05 0.239E-07 ort(H,U,f) =-0.225E-05 0.949E-06 0.273E-08
CGA:  97    -0.497589847912E+03   -0.57138E-05   -0.56898E-05  3904   0.155E-04-0.130E-05
 gam= 0.763 trial= 0.635  step= 0.478 mean= 0.635
 gam= 0.604 g(H,U,f)=  0.629E-05 0.304E-05 0.483E-08 ort(H,U,f) =-0.563E-06 0.346E-06 0.220E-08
CGA:  98    -0.497589851378E+03   -0.34653E-05   -0.34522E-05  3904   0.933E-05-0.214E-06
 gam= 0.604 trial= 0.627  step= 0.520 mean= 0.627
 gam= 0.696 g(H,U,f)=  0.409E-05 0.239E-05 0.151E-07 ort(H,U,f) =-0.364E-06 0.802E-07-0.527E-08
CGA:  99    -0.497589853794E+03   -0.24164E-05   -0.23937E-05  3904   0.650E-05-0.289E-06
 gam= 0.696 trial= 0.622  step= 0.530 mean= 0.622
 gam= 0.694 g(H,U,f)=  0.281E-05 0.170E-05 0.244E-08 ort(H,U,f) =-0.838E-06 0.206E-06 0.424E-08
CGA: 100    -0.497589855499E+03   -0.17046E-05   -0.16692E-05  3904   0.451E-05-0.627E-06
 gam= 0.694 trial= 0.617  step= 0.558 mean= 0.617
 gam= 0.000 g(H,U,f)=  0.228E-05 0.138E-05 0.512E-08 ort(H,U,f) =-0.703E-06 0.155E-06-0.401E-08
SDA: 101    -0.497589856654E+03   -0.11555E-05   -0.11367E-05  3904   0.366E-05-0.552E-06
 gam= 0.000 trial= 0.614  step= 0.639 mean= 0.614
 gam= 0.592 g(H,U,f)=  0.102E-05 0.114E-05 0.960E-08 ort(H,U,f) =-0.350E-06 0.587E-06-0.620E-08
CGA: 102    -0.497589857828E+03   -0.11739E-05   -0.11708E-05  3904   0.217E-05 0.230E-06
 gam= 0.592 trial= 0.616  step= 0.880 mean= 0.616
 gam= 0.843 g(H,U,f)=  0.115E-05 0.667E-06 0.949E-08 ort(H,U,f) =-0.739E-06 0.591E-06-0.458E-08
CGA: 103    -0.497589858819E+03   -0.99135E-06   -0.10137E-05  3904   0.183E-05-0.152E-06
 gam= 0.843 trial= 0.629  step= 0.698 mean= 0.629
 final diagonalization
   1 F= -.49758986E+03 E0= -.49758310E+03  d E =-.497590E+03  mag=    94.0000
quench:  g(F)=  0.000E+00 g(S)=  0.000E+00 dE (1.order)= 0.000E+00
 bond charge predicted
       N       E                     dE             d eps       ncg     rms          ort
 gam= 0.000 g(H,U,f)=  0.529E-03 0.361E-04 0.294E-07 ort(H,U,f) = 0.000E+00 0.000E+00 0.000E+00
SDA:   1    -0.497589547530E+03    0.31030E-03    0.00000E+00  3904   0.565E-03 0.000E+00
 gam= 0.000 trial= 0.632  step= 0.528 mean= 0.632
 gam= 0.465 g(H,U,f)=  0.249E-03 0.137E-04 0.309E-07 ort(H,U,f) =-0.154E-04 0.158E-04-0.291E-07
CGA:   2    -0.497589696682E+03   -0.14915E-03   -0.14918E-03  3904   0.263E-03 0.441E-06
 gam= 0.465 trial= 0.627  step= 0.397 mean= 0.627
 gam= 0.215 g(H,U,f)=  0.496E-04 0.699E-05 0.484E-08 ort(H,U,f) =-0.154E-04 0.149E-04 0.452E-08
CGA:   3    -0.497589748996E+03   -0.52314E-04   -0.52256E-04  3904   0.566E-04-0.475E-06
 gam= 0.215 trial= 0.616  step= 0.457 mean= 0.616
 gam= 0.306 g(H,U,f)=  0.140E-04 0.336E-05 0.894E-09 ort(H,U,f) =-0.618E-05 0.660E-05-0.151E-08
CGA:   4    -0.497589761867E+03   -0.12871E-04   -0.12904E-04  3904   0.173E-04 0.422E-06
 gam= 0.306 trial= 0.608  step= 0.504 mean= 0.608
 gam= 0.367 g(H,U,f)=  0.498E-05 0.139E-05 0.124E-09 ort(H,U,f) =-0.352E-05 0.341E-05-0.113E-09
CGA:   5    -0.497589766272E+03   -0.44049E-05   -0.43987E-05  3904   0.637E-05-0.117E-06
 gam= 0.367 trial= 0.602  step= 0.568 mean= 0.602
 gam= 0.411 g(H,U,f)=  0.213E-05 0.492E-06 0.236E-09 ort(H,U,f) =-0.144E-05 0.144E-05 0.937E-10
CGA:   6    -0.497589768068E+03   -0.17963E-05   -0.17957E-05  3904   0.262E-05-0.701E-09
 gam= 0.411 trial= 0.601  step= 0.637 mean= 0.601
 gam= 0.419 g(H,U,f)=  0.916E-06 0.181E-06 0.590E-10 ort(H,U,f) =-0.454E-06 0.483E-06-0.141E-10
CGA:   7    -0.497589768902E+03   -0.83419E-06   -0.83404E-06  3904   0.110E-05 0.286E-07
 gam= 0.419 trial= 0.602  step= 0.663 mean= 0.602
 final diagonalization
   2 F= -.49758977E+03 E0= -.49758301E+03  d E =0.899170E-04  mag=    94.0000
quench:  g(F)=  0.000E+00 g(S)=  0.000E+00 dE (1.order)= 0.000E+00
 bond charge predicted
       N       E                     dE             d eps       ncg     rms          ort
 gam= 0.000 g(H,U,f)=  0.212E-02 0.164E-03 0.984E-07 ort(H,U,f) = 0.000E+00 0.000E+00 0.000E+00
SDA:   1    -0.497588699704E+03    0.10684E-02    0.00000E+00  3904   0.229E-02 0.000E+00
 gam= 0.000 trial= 0.605  step= 0.515 mean= 0.605
 gam= 0.483 g(H,U,f)=  0.104E-02 0.607E-04 0.883E-07 ort(H,U,f) =-0.793E-04 0.794E-04-0.900E-07
CGA:   2    -0.497589287963E+03   -0.58826E-03   -0.58826E-03  3904   0.110E-02 0.386E-08
 gam= 0.483 trial= 0.601  step= 0.401 mean= 0.601
 gam= 0.216 g(H,U,f)=  0.207E-03 0.314E-04 0.145E-07 ort(H,U,f) =-0.697E-04 0.697E-04 0.136E-07
CGA:   3    -0.497589509614E+03   -0.22165E-03   -0.22165E-03  3904   0.238E-03 0.126E-08
 gam= 0.216 trial= 0.591  step= 0.457 mean= 0.591
 gam= 0.315 g(H,U,f)=  0.601E-04 0.148E-04 0.328E-08 ort(H,U,f) =-0.299E-04 0.303E-04-0.502E-08
CGA:   4    -0.497589563972E+03   -0.54358E-04   -0.54388E-04  3904   0.749E-04 0.440E-06
 gam= 0.315 trial= 0.584  step= 0.507 mean= 0.584
 gam= 0.356 g(H,U,f)=  0.211E-04 0.559E-05 0.297E-09 ort(H,U,f) =-0.150E-04 0.148E-04-0.463E-09
CGA:   5    -0.497589582990E+03   -0.19019E-04   -0.19011E-04  3904   0.267E-04-0.196E-06
 gam= 0.356 trial= 0.580  step= 0.560 mean= 0.580
 gam= 0.380 g(H,U,f)=  0.852E-05 0.162E-05 0.601E-09 ort(H,U,f) =-0.555E-05 0.559E-05 0.209E-09
CGA:   6    -0.497589590437E+03   -0.74472E-05   -0.74475E-05  3904   0.101E-04 0.341E-07
 gam= 0.380 trial= 0.579  step= 0.612 mean= 0.579
 gam= 0.350 g(H,U,f)=  0.322E-05 0.330E-06 0.108E-09 ort(H,U,f) =-0.140E-05 0.140E-05-0.285E-10
CGA:   7    -0.497589593545E+03   -0.31077E-05   -0.31081E-05  3904   0.355E-05 0.557E-08
 gam= 0.350 trial= 0.581  step= 0.583 mean= 0.581
 gam= 0.297 g(H,U,f)=  0.927E-06 0.129E-06 0.357E-10 ort(H,U,f) =-0.275E-06 0.287E-06-0.215E-10
CGA:   8    -0.497589594582E+03   -0.10369E-05   -0.10370E-05  3904   0.106E-05 0.120E-07
 gam= 0.297 trial= 0.581  step= 0.648 mean= 0.581
 gam= 0.357 g(H,U,f)=  0.279E-06 0.979E-07 0.199E-10 ort(H,U,f) =-0.135E-06 0.121E-06-0.167E-11
CGA:   9    -0.497589594925E+03   -0.34241E-06   -0.34322E-06  3904   0.377E-06-0.137E-07
 gam= 0.357 trial= 0.584  step= 0.793 mean= 0.584
 final diagonalization
   3 F= -.49758959E+03 E0= -.49758283E+03  d E =0.173978E-03  mag=    94.0000
quench:  g(F)=  0.000E+00 g(S)=  0.000E+00 dE (1.order)= 0.000E+00
 bond charge predicted
       N       E                     dE             d eps       ncg     rms          ort
 gam= 0.000 g(H,U,f)=  0.443E-02 0.333E-03 0.187E-06 ort(H,U,f) = 0.000E+00 0.000E+00 0.000E+00
SDA:   1    -0.497587481555E+03    0.21130E-02    0.00000E+00  3904   0.477E-02 0.000E+00
 gam= 0.000 trial= 0.595  step= 0.516 mean= 0.595
 gam= 0.483 g(H,U,f)=  0.218E-02 0.123E-03 0.179E-06 ort(H,U,f) =-0.163E-03 0.164E-03-0.176E-06
CGA:   2    -0.497588711158E+03   -0.12296E-02   -0.12296E-02  3904   0.230E-02 0.138E-06
 gam= 0.483 trial= 0.591  step= 0.401 mean= 0.591
 gam= 0.215 g(H,U,f)=  0.430E-03 0.638E-04 0.231E-07 ort(H,U,f) =-0.142E-03 0.142E-03 0.248E-07
CGA:   3    -0.497589173221E+03   -0.46206E-03   -0.46206E-03  3904   0.494E-03-0.410E-07
 gam= 0.215 trial= 0.581  step= 0.460 mean= 0.581
 gam= 0.319 g(H,U,f)=  0.127E-03 0.301E-04 0.719E-08 ort(H,U,f) =-0.611E-04 0.617E-04-0.101E-07
CGA:   4    -0.497589286904E+03   -0.11368E-03   -0.11372E-03  3904   0.158E-03 0.588E-06
 gam= 0.319 trial= 0.575  step= 0.492 mean= 0.575
 gam= 0.349 g(H,U,f)=  0.434E-04 0.116E-04 0.522E-09 ort(H,U,f) =-0.309E-04 0.307E-04-0.987E-09
CGA:   5    -0.497589325715E+03   -0.38811E-04   -0.38801E-04  3904   0.549E-04-0.258E-06
 gam= 0.349 trial= 0.571  step= 0.560 mean= 0.571
 gam= 0.383 g(H,U,f)=  0.177E-04 0.333E-05 0.118E-08 ort(H,U,f) =-0.114E-04 0.115E-04 0.338E-09
CGA:   6    -0.497589341055E+03   -0.15341E-04   -0.15341E-04  3904   0.210E-04 0.668E-07
 gam= 0.383 trial= 0.571  step= 0.603 mean= 0.571
 gam= 0.342 g(H,U,f)=  0.660E-05 0.599E-06 0.217E-09 ort(H,U,f) =-0.288E-05 0.290E-05-0.130E-09
CGA:   7    -0.497589347400E+03   -0.63446E-05   -0.63441E-05  3904   0.720E-05 0.166E-07
 gam= 0.342 trial= 0.572  step= 0.575 mean= 0.572
 gam= 0.277 g(H,U,f)=  0.185E-05 0.149E-06 0.672E-10 ort(H,U,f) =-0.476E-06 0.487E-06-0.467E-10
CGA:   8    -0.497589349472E+03   -0.20718E-05   -0.20716E-05  3904   0.200E-05 0.102E-07
 gam= 0.277 trial= 0.572  step= 0.604 mean= 0.572
 gam= 0.276 g(H,U,f)=  0.470E-06 0.794E-07 0.223E-10 ort(H,U,f) =-0.114E-06 0.109E-06-0.764E-11
CGA:   9    -0.497589350076E+03   -0.60411E-06   -0.60362E-06  3904   0.550E-06-0.509E-08
 gam= 0.276 trial= 0.574  step= 0.658 mean= 0.574
 final diagonalization
   4 F= -.49758935E+03 E0= -.49758259E+03  d E =0.244849E-03  mag=    94.0000
quench:  g(F)=  0.000E+00 g(S)=  0.000E+00 dE (1.order)= 0.000E+00
 bond charge predicted
       N       E                     dE             d eps       ncg     rms          ort
 gam= 0.000 g(H,U,f)=  0.720E-02 0.545E-03 0.299E-06 ort(H,U,f) = 0.000E+00 0.000E+00 0.000E+00
SDA:   1    -0.497586021563E+03    0.33279E-02    0.00000E+00  3904   0.774E-02 0.000E+00
 gam= 0.000 trial= 0.578  step= 0.515 mean= 0.578
 gam= 0.484 g(H,U,f)=  0.355E-02 0.202E-03 0.296E-06 ort(H,U,f) =-0.270E-03 0.270E-03-0.287E-06
CGA:   2    -0.497588013920E+03   -0.19924E-02   -0.19924E-02  3904   0.375E-02 0.198E-06
 gam= 0.484 trial= 0.575  step= 0.402 mean= 0.575
 gam= 0.215 g(H,U,f)=  0.700E-03 0.105E-03 0.335E-07 ort(H,U,f) =-0.235E-03 0.234E-03 0.395E-07
CGA:   3    -0.497588767210E+03   -0.75329E-03   -0.75329E-03  3904   0.805E-03-0.672E-07
 gam= 0.215 trial= 0.566  step= 0.461 mean= 0.566
 gam= 0.321 g(H,U,f)=  0.208E-03 0.496E-04 0.124E-07 ort(H,U,f) =-0.101E-03 0.102E-03-0.173E-07
CGA:   4    -0.497588952549E+03   -0.18534E-03   -0.18538E-03  3904   0.258E-03 0.702E-06
 gam= 0.321 trial= 0.561  step= 0.493 mean= 0.561
 gam= 0.350 g(H,U,f)=  0.712E-04 0.190E-04 0.907E-09 ort(H,U,f) =-0.509E-04 0.506E-04-0.167E-08
CGA:   5    -0.497589016181E+03   -0.63632E-04   -0.63622E-04  3904   0.902E-04-0.312E-06
 gam= 0.350 trial= 0.558  step= 0.559 mean= 0.558
 gam= 0.383 g(H,U,f)=  0.291E-04 0.542E-05 0.185E-08 ort(H,U,f) =-0.188E-04 0.189E-04 0.517E-09
CGA:   6    -0.497589041359E+03   -0.25178E-04   -0.25178E-04  3904   0.346E-04 0.116E-06
 gam= 0.383 trial= 0.558  step= 0.602 mean= 0.558
 gam= 0.340 g(H,U,f)=  0.108E-04 0.934E-06 0.380E-09 ort(H,U,f) =-0.468E-05 0.470E-05-0.280E-09
CGA:   7    -0.497589051769E+03   -0.10409E-04   -0.10409E-04  3904   0.117E-04 0.205E-07
 gam= 0.340 trial= 0.560  step= 0.572 mean= 0.560
 gam= 0.271 g(H,U,f)=  0.299E-05 0.195E-06 0.112E-09 ort(H,U,f) =-0.727E-06 0.738E-06-0.770E-10
CGA:   8    -0.497589055131E+03   -0.33622E-05   -0.33619E-05  3904   0.319E-05 0.110E-07
 gam= 0.271 trial= 0.561  step= 0.594 mean= 0.561
 gam= 0.255 g(H,U,f)=  0.731E-06 0.820E-07 0.317E-10 ort(H,U,f) =-0.118E-06 0.121E-06-0.144E-10
CGA:   9    -0.497589056078E+03   -0.94714E-06   -0.94656E-06  3904   0.813E-06 0.258E-08
 gam= 0.255 trial= 0.562  step= 0.623 mean= 0.562
 final diagonalization
   5 F= -.49758906E+03 E0= -.49758229E+03  d E =0.293998E-03  mag=    94.0000
quench:  g(F)=  0.000E+00 g(S)=  0.000E+00 dE (1.order)= 0.000E+00
 bond charge predicted
       N       E                     dE             d eps       ncg     rms          ort
 gam= 0.000 g(H,U,f)=  0.101E-01 0.786E-03 0.439E-06 ort(H,U,f) = 0.000E+00 0.000E+00 0.000E+00
SDA:   1    -0.497584458896E+03    0.45962E-02    0.00000E+00  3904   0.109E-01 0.000E+00
 gam= 0.000 trial= 0.565  step= 0.512 mean= 0.565
 gam= 0.488 g(H,U,f)=  0.503E-02 0.293E-03 0.442E-06 ort(H,U,f) =-0.395E-03 0.396E-03-0.425E-06
CGA:   2    -0.497587252233E+03   -0.27933E-02   -0.27933E-02  3904   0.533E-02 0.243E-06
 gam= 0.488 trial= 0.563  step= 0.403 mean= 0.563
 gam= 0.215 g(H,U,f)=  0.994E-03 0.152E-03 0.453E-07 ort(H,U,f) =-0.341E-03 0.341E-03 0.587E-07
CGA:   3    -0.497588325010E+03   -0.10728E-02   -0.10728E-02  3904   0.115E-02-0.131E-06
 gam= 0.215 trial= 0.555  step= 0.461 mean= 0.555
 gam= 0.323 g(H,U,f)=  0.298E-03 0.719E-04 0.194E-07 ort(H,U,f) =-0.147E-03 0.148E-03-0.277E-07
CGA:   4    -0.497588589095E+03   -0.26409E-03   -0.26412E-03  3904   0.370E-03 0.757E-06
 gam= 0.323 trial= 0.550  step= 0.494 mean= 0.550
 gam= 0.350 g(H,U,f)=  0.102E-03 0.273E-04 0.138E-08 ort(H,U,f) =-0.737E-04 0.734E-04-0.240E-08
CGA:   5    -0.497588680571E+03   -0.91476E-04   -0.91466E-04  3904   0.130E-03-0.345E-06
 gam= 0.350 trial= 0.547  step= 0.560 mean= 0.547
 gam= 0.384 g(H,U,f)=  0.421E-04 0.770E-05 0.263E-08 ort(H,U,f) =-0.269E-04 0.271E-04 0.697E-09
CGA:   6    -0.497588716795E+03   -0.36224E-04   -0.36223E-04  3904   0.498E-04 0.176E-06
 gam= 0.384 trial= 0.548  step= 0.601 mean= 0.548
 gam= 0.337 g(H,U,f)=  0.155E-04 0.130E-05 0.603E-09 ort(H,U,f) =-0.665E-05 0.667E-05-0.516E-09
CGA:   7    -0.497588731773E+03   -0.14978E-04   -0.14978E-04  3904   0.168E-04 0.176E-07
 gam= 0.337 trial= 0.550  step= 0.570 mean= 0.550
 gam= 0.269 g(H,U,f)=  0.426E-05 0.258E-06 0.164E-09 ort(H,U,f) =-0.997E-06 0.101E-05-0.112E-09
CGA:   8    -0.497588736566E+03   -0.47927E-05   -0.47924E-05  3904   0.452E-05 0.174E-07
 gam= 0.269 trial= 0.551  step= 0.591 mean= 0.551
 gam= 0.249 g(H,U,f)=  0.103E-05 0.972E-07 0.446E-10 ort(H,U,f) =-0.135E-06 0.146E-06-0.224E-10
CGA:   9    -0.497588737904E+03   -0.13380E-05   -0.13375E-05  3904   0.113E-05 0.110E-07
 gam= 0.249 trial= 0.553  step= 0.615 mean= 0.553
 gam= 0.287 g(H,U,f)=  0.261E-06 0.623E-07 0.373E-10 ort(H,U,f) =-0.693E-07 0.775E-07 0.990E-11
CGA:  10    -0.497588738253E+03   -0.34891E-06   -0.34720E-06  3904   0.323E-06 0.824E-08
 gam= 0.287 trial= 0.556  step= 0.675 mean= 0.556
 final diagonalization
   6 F= -.49758874E+03 E0= -.49758197E+03  d E =0.317825E-03  mag=    94.0000
quench:  g(F)=  0.000E+00 g(S)=  0.000E+00 dE (1.order)= 0.000E+00
 bond charge predicted
       N       E                     dE             d eps       ncg     rms          ort
 gam= 0.000 g(H,U,f)=  0.130E-01 0.102E-02 0.574E-06 ort(H,U,f) = 0.000E+00 0.000E+00 0.000E+00
SDA:   1    -0.497582954860E+03    0.57830E-02    0.00000E+00  3904   0.140E-01 0.000E+00
 gam= 0.000 trial= 0.562  step= 0.511 mean= 0.562
 gam= 0.488 g(H,U,f)=  0.645E-02 0.379E-03 0.606E-06 ort(H,U,f) =-0.514E-03 0.514E-03-0.569E-06
CGA:   2    -0.497586525783E+03   -0.35709E-02   -0.35709E-02  3904   0.683E-02 0.172E-06
 gam= 0.488 trial= 0.560  step= 0.403 mean= 0.560
 gam= 0.215 g(H,U,f)=  0.127E-02 0.197E-03 0.530E-07 ort(H,U,f) =-0.442E-03 0.441E-03 0.777E-07
CGA:   3    -0.497587901138E+03   -0.13754E-02   -0.13754E-02  3904   0.147E-02-0.137E-06
 gam= 0.215 trial= 0.552  step= 0.462 mean= 0.552
 gam= 0.324 g(H,U,f)=  0.384E-03 0.931E-04 0.280E-07 ort(H,U,f) =-0.191E-03 0.192E-03-0.391E-07
CGA:   4    -0.497588240963E+03   -0.33983E-03   -0.33986E-03  3904   0.477E-03 0.686E-06
 gam= 0.324 trial= 0.547  step= 0.496 mean= 0.547
 gam= 0.347 g(H,U,f)=  0.131E-03 0.351E-04 0.203E-08 ort(H,U,f) =-0.951E-04 0.947E-04-0.344E-08
CGA:   5    -0.497588359372E+03   -0.11841E-03   -0.11840E-03  3904   0.166E-03-0.385E-06
 gam= 0.347 trial= 0.545  step= 0.561 mean= 0.545
 gam= 0.388 g(H,U,f)=  0.543E-04 0.986E-05 0.325E-08 ort(H,U,f) =-0.344E-04 0.347E-04 0.823E-09
CGA:   6    -0.497588405774E+03   -0.46402E-04   -0.46403E-04  3904   0.642E-04 0.247E-06
 gam= 0.388 trial= 0.546  step= 0.601 mean= 0.546
 gam= 0.335 g(H,U,f)=  0.199E-04 0.165E-05 0.951E-09 ort(H,U,f) =-0.852E-05 0.853E-05-0.855E-09
CGA:   7    -0.497588425083E+03   -0.19308E-04   -0.19307E-04  3904   0.215E-04 0.464E-08
 gam= 0.335 trial= 0.548  step= 0.568 mean= 0.548
 gam= 0.269 g(H,U,f)=  0.546E-05 0.322E-06 0.236E-09 ort(H,U,f) =-0.126E-05 0.128E-05-0.187E-09
CGA:   8    -0.497588431202E+03   -0.61192E-05   -0.61183E-05  3904   0.579E-05 0.254E-07
 gam= 0.269 trial= 0.549  step= 0.591 mean= 0.549
 gam= 0.247 g(H,U,f)=  0.131E-05 0.117E-06 0.570E-10 ort(H,U,f) =-0.158E-06 0.177E-06-0.395E-10
CGA:   9    -0.497588432913E+03   -0.17109E-05   -0.17107E-05  3904   0.143E-05 0.191E-07
 gam= 0.247 trial= 0.551  step= 0.611 mean= 0.551
 gam= 0.278 g(H,U,f)=  0.325E-06 0.721E-07 0.450E-10 ort(H,U,f) =-0.770E-07 0.899E-07 0.853E-11
CGA:  10    -0.497588433351E+03   -0.43774E-06   -0.43781E-06  3904   0.397E-06 0.129E-07
 gam= 0.278 trial= 0.554  step= 0.671 mean= 0.554
 final diagonalization
   7 F= -.49758843E+03 E0= -.49758167E+03  d E =0.304902E-03  mag=    94.0000
quench:  g(F)=  0.000E+00 g(S)=  0.000E+00 dE (1.order)= 0.000E+00
 bond charge predicted
       N       E                     dE             d eps       ncg     rms          ort
 gam= 0.000 g(H,U,f)=  0.193E-01 0.157E-02 0.916E-06 ort(H,U,f) = 0.000E+00 0.000E+00 0.000E+00
SDA:   1    -0.497579955758E+03    0.84772E-02    0.00000E+00  3904   0.209E-01 0.000E+00
 gam= 0.000 trial= 0.560  step= 0.509 mean= 0.560
 gam= 0.490 g(H,U,f)=  0.966E-02 0.581E-03 0.996E-06 ort(H,U,f) =-0.794E-03 0.795E-03-0.924E-06
CGA:   2    -0.497585277021E+03   -0.53213E-02   -0.53213E-02  3904   0.102E-01 0.155E-06
 gam= 0.490 trial= 0.558  step= 0.404 mean= 0.558
 gam= 0.216 g(H,U,f)=  0.191E-02 0.302E-03 0.792E-07 ort(H,U,f) =-0.678E-03 0.677E-03 0.129E-06
CGA:   3    -0.497587344197E+03   -0.20672E-02   -0.20672E-02  3904   0.221E-02-0.269E-06
 gam= 0.216 trial= 0.550  step= 0.463 mean= 0.550
 gam= 0.327 g(H,U,f)=  0.581E-03 0.142E-03 0.466E-07 ort(H,U,f) =-0.293E-03 0.294E-03-0.671E-07
CGA:   4    -0.497587856781E+03   -0.51258E-03   -0.51261E-03  3904   0.723E-03 0.647E-06
 gam= 0.327 trial= 0.546  step= 0.497 mean= 0.546
 gam= 0.347 g(H,U,f)=  0.198E-03 0.533E-04 0.334E-08 ort(H,U,f) =-0.145E-03 0.145E-03-0.521E-08
CGA:   5    -0.497588036516E+03   -0.17973E-03   -0.17973E-03  3904   0.251E-03-0.418E-06
 gam= 0.347 trial= 0.543  step= 0.562 mean= 0.543
 gam= 0.389 g(H,U,f)=  0.829E-04 0.148E-04 0.513E-08 ort(H,U,f) =-0.522E-04 0.526E-04 0.120E-08
CGA:   6    -0.497588107049E+03   -0.70534E-04   -0.70533E-04  3904   0.978E-04 0.375E-06
 gam= 0.389 trial= 0.544  step= 0.599 mean= 0.544
 gam= 0.332 g(H,U,f)=  0.301E-04 0.245E-05 0.171E-08 ort(H,U,f) =-0.128E-04 0.128E-04-0.166E-08
CGA:   7    -0.497588136394E+03   -0.29344E-04   -0.29343E-04  3904   0.325E-04-0.719E-08
 gam= 0.332 trial= 0.547  step= 0.568 mean= 0.547
 gam= 0.268 g(H,U,f)=  0.824E-05 0.478E-06 0.390E-09 ort(H,U,f) =-0.186E-05 0.189E-05-0.328E-09
CGA:   8    -0.497588145616E+03   -0.92221E-05   -0.92222E-05  3904   0.872E-05 0.285E-07
 gam= 0.268 trial= 0.548  step= 0.590 mean= 0.548
 gam= 0.245 g(H,U,f)=  0.197E-05 0.169E-06 0.847E-10 ort(H,U,f) =-0.215E-06 0.254E-06-0.701E-10
CGA:   9    -0.497588148191E+03   -0.25752E-05   -0.25746E-05  3904   0.214E-05 0.391E-07
 gam= 0.245 trial= 0.550  step= 0.609 mean= 0.550
 gam= 0.274 g(H,U,f)=  0.484E-06 0.101E-06 0.560E-10 ort(H,U,f) =-0.108E-06 0.127E-06 0.867E-11
CGA:  10    -0.497588148845E+03   -0.65369E-06   -0.65382E-06  3904   0.585E-06 0.185E-07
 gam= 0.274 trial= 0.553  step= 0.674 mean= 0.553
 final diagonalization
   8 F= -.49758815E+03 E0= -.49758138E+03  d E =0.284506E-03  mag=    94.0000
quench:  g(F)=  0.000E+00 g(S)=  0.000E+00 dE (1.order)= 0.000E+00
 bond charge predicted
       N       E                     dE             d eps       ncg     rms          ort
 gam= 0.000 g(H,U,f)=  0.282E-01 0.237E-02 0.150E-05 ort(H,U,f) = 0.000E+00 0.000E+00 0.000E+00
SDA:   1    -0.497575959729E+03    0.12188E-01    0.00000E+00  3904   0.305E-01 0.000E+00
 gam= 0.000 trial= 0.559  step= 0.507 mean= 0.559
 gam= 0.492 g(H,U,f)=  0.141E-01 0.875E-03 0.165E-05 ort(H,U,f) =-0.121E-02 0.121E-02-0.152E-05
CGA:   2    -0.497583694323E+03   -0.77346E-02   -0.77346E-02  3904   0.150E-01 0.331E-07
 gam= 0.492 trial= 0.556  step= 0.405 mean= 0.556
 gam= 0.217 g(H,U,f)=  0.281E-02 0.454E-03 0.132E-06 ort(H,U,f) =-0.102E-02 0.102E-02 0.224E-06
CGA:   3    -0.497586735281E+03   -0.30410E-02   -0.30409E-02  3904   0.326E-02-0.434E-06
 gam= 0.217 trial= 0.549  step= 0.464 mean= 0.549
 gam= 0.330 g(H,U,f)=  0.861E-03 0.213E-03 0.758E-07 ort(H,U,f) =-0.442E-03 0.443E-03-0.117E-06
CGA:   4    -0.497587491984E+03   -0.75670E-03   -0.75673E-03  3904   0.107E-02 0.548E-06
 gam= 0.330 trial= 0.545  step= 0.497 mean= 0.545
 gam= 0.347 g(H,U,f)=  0.294E-03 0.792E-04 0.548E-08 ort(H,U,f) =-0.218E-03 0.217E-03-0.735E-08
CGA:   5    -0.497587759178E+03   -0.26719E-03   -0.26719E-03  3904   0.373E-03-0.455E-06
 gam= 0.347 trial= 0.542  step= 0.563 mean= 0.542
 gam= 0.390 g(H,U,f)=  0.124E-03 0.218E-04 0.827E-08 ort(H,U,f) =-0.772E-04 0.778E-04 0.193E-08
CGA:   6    -0.497587864158E+03   -0.10498E-03   -0.10498E-03  3904   0.146E-03 0.539E-06
 gam= 0.390 trial= 0.543  step= 0.598 mean= 0.543
 gam= 0.329 g(H,U,f)=  0.444E-04 0.355E-05 0.283E-08 ort(H,U,f) =-0.187E-04 0.187E-04-0.304E-08
CGA:   7    -0.497587907756E+03   -0.43598E-04   -0.43598E-04  3904   0.479E-04-0.169E-07
 gam= 0.329 trial= 0.546  step= 0.567 mean= 0.546
 gam= 0.268 g(H,U,f)=  0.121E-04 0.706E-06 0.619E-09 ort(H,U,f) =-0.267E-05 0.271E-05-0.508E-09
CGA:   8    -0.497587921331E+03   -0.13575E-04   -0.13574E-04  3904   0.128E-04 0.405E-07
 gam= 0.268 trial= 0.547  step= 0.590 mean= 0.547
 gam= 0.245 g(H,U,f)=  0.289E-05 0.250E-06 0.120E-09 ort(H,U,f) =-0.298E-06 0.368E-06-0.109E-09
CGA:   9    -0.497587925122E+03   -0.37913E-05   -0.37899E-05  3904   0.314E-05 0.696E-07
 gam= 0.245 trial= 0.549  step= 0.609 mean= 0.549
 gam= 0.273 g(H,U,f)=  0.709E-06 0.148E-06 0.627E-10 ort(H,U,f) =-0.157E-06 0.187E-06 0.971E-11
CGA:  10    -0.497587926085E+03   -0.96227E-06   -0.96104E-06  3904   0.857E-06 0.292E-07
 gam= 0.273 trial= 0.552  step= 0.676 mean= 0.552
 final diagonalization
   9 F= -.49758793E+03 E0= -.49758116E+03  d E =0.222760E-03  mag=    94.0000
quench:  g(F)=  0.000E+00 g(S)=  0.000E+00 dE (1.order)= 0.000E+00
 bond charge predicted
       N       E                     dE             d eps       ncg     rms          ort
 gam= 0.000 g(H,U,f)=  0.404E-01 0.348E-02 0.247E-05 ort(H,U,f) = 0.000E+00 0.000E+00 0.000E+00
SDA:   1    -0.497570600649E+03    0.17324E-01    0.00000E+00  3904   0.439E-01 0.000E+00
 gam= 0.000 trial= 0.558  step= 0.505 mean= 0.558
 gam= 0.493 g(H,U,f)=  0.204E-01 0.128E-02 0.271E-05 ort(H,U,f) =-0.178E-02 0.178E-02-0.252E-05
CGA:   2    -0.497581686657E+03   -0.11086E-01   -0.11086E-01  3904   0.216E-01-0.237E-06
 gam= 0.493 trial= 0.556  step= 0.406 mean= 0.556
 gam= 0.218 g(H,U,f)=  0.405E-02 0.665E-03 0.234E-06 ort(H,U,f) =-0.150E-02 0.150E-02 0.397E-06
CGA:   3    -0.497586082337E+03   -0.43957E-02   -0.43956E-02  3904   0.472E-02-0.589E-06
 gam= 0.218 trial= 0.548  step= 0.465 mean= 0.548
 gam= 0.331 g(H,U,f)=  0.125E-02 0.313E-03 0.118E-06 ort(H,U,f) =-0.650E-03 0.651E-03-0.202E-06
CGA:   4    -0.497587178647E+03   -0.10963E-02   -0.10963E-02  3904   0.156E-02 0.423E-06
 gam= 0.331 trial= 0.544  step= 0.498 mean= 0.544
 gam= 0.347 g(H,U,f)=  0.428E-03 0.115E-03 0.923E-08 ort(H,U,f) =-0.319E-03 0.318E-03-0.991E-08
CGA:   5    -0.497587567732E+03   -0.38909E-03   -0.38908E-03  3904   0.543E-03-0.472E-06
 gam= 0.347 trial= 0.542  step= 0.564 mean= 0.542
 gam= 0.391 g(H,U,f)=  0.181E-03 0.315E-04 0.133E-07 ort(H,U,f) =-0.112E-03 0.113E-03 0.353E-08
CGA:   6    -0.497587720670E+03   -0.15294E-03   -0.15293E-03  3904   0.212E-03 0.710E-06
 gam= 0.391 trial= 0.543  step= 0.597 mean= 0.543
 gam= 0.327 g(H,U,f)=  0.643E-04 0.508E-05 0.414E-08 ort(H,U,f) =-0.268E-04 0.268E-04-0.508E-08
CGA:   7    -0.497587784096E+03   -0.63426E-04   -0.63425E-04  3904   0.694E-04-0.113E-08
 gam= 0.327 trial= 0.546  step= 0.566 mean= 0.546
 gam= 0.268 g(H,U,f)=  0.175E-04 0.103E-05 0.943E-09 ort(H,U,f) =-0.379E-05 0.386E-05-0.678E-09
CGA:   8    -0.497587803720E+03   -0.19624E-04   -0.19623E-04  3904   0.186E-04 0.649E-07
 gam= 0.268 trial= 0.547  step= 0.590 mean= 0.547
 gam= 0.245 g(H,U,f)=  0.417E-05 0.364E-06 0.164E-09 ort(H,U,f) =-0.424E-06 0.525E-06-0.146E-09
CGA:   9    -0.497587809207E+03   -0.54870E-05   -0.54847E-05  3904   0.454E-05 0.101E-06
 gam= 0.245 trial= 0.549  step= 0.610 mean= 0.549
 gam= 0.273 g(H,U,f)=  0.102E-05 0.214E-06 0.629E-10 ort(H,U,f) =-0.234E-06 0.271E-06 0.112E-10
CGA:  10    -0.497587810600E+03   -0.13929E-05   -0.13917E-05  3904   0.124E-05 0.372E-07
 gam= 0.273 trial= 0.552  step= 0.681 mean= 0.552
 gam= 0.409 g(H,U,f)=  0.360E-06 0.146E-06 0.531E-10 ort(H,U,f) =-0.158E-06 0.210E-06-0.103E-10
CGA:  11    -0.497587811026E+03   -0.42614E-06   -0.42543E-06  3904   0.506E-06 0.512E-07
 gam= 0.409 trial= 0.558  step= 0.868 mean= 0.558
 final diagonalization
  10 F= -.49758781E+03 E0= -.49758105E+03  d E =0.115059E-03  mag=    94.0000
quench:  g(F)=  0.000E+00 g(S)=  0.000E+00 dE (1.order)= 0.000E+00
 bond charge predicted
       N       E                     dE             d eps       ncg     rms          ort
 gam= 0.000 g(H,U,f)=  0.568E-01 0.455E-02 0.399E-05 ort(H,U,f) = 0.000E+00 0.000E+00 0.000E+00
SDA:   1    -0.497563742222E+03    0.24068E-01    0.00000E+00  3904   0.614E-01 0.000E+00
 gam= 0.000 trial= 0.574  step= 0.514 mean= 0.574
 gam= 0.486 g(H,U,f)=  0.281E-01 0.167E-02 0.479E-05 ort(H,U,f) =-0.227E-02 0.227E-02-0.429E-05
CGA:   2    -0.497579517428E+03   -0.15775E-01   -0.15775E-01  3904   0.298E-01-0.732E-06
 gam= 0.486 trial= 0.571  step= 0.401 mean= 0.571
 gam= 0.215 g(H,U,f)=  0.554E-02 0.876E-03 0.374E-06 ort(H,U,f) =-0.195E-02 0.195E-02 0.714E-06
CGA:   3    -0.497585490152E+03   -0.59727E-02   -0.59727E-02  3904   0.642E-02-0.584E-06
 gam= 0.215 trial= 0.562  step= 0.465 mean= 0.562
 gam= 0.328 g(H,U,f)=  0.169E-02 0.416E-03 0.171E-06 ort(H,U,f) =-0.849E-03 0.850E-03-0.321E-06
CGA:   4    -0.497586981990E+03   -0.14918E-02   -0.14919E-02  3904   0.211E-02 0.297E-06
 gam= 0.328 trial= 0.557  step= 0.496 mean= 0.557
 gam= 0.347 g(H,U,f)=  0.575E-03 0.156E-03 0.173E-07 ort(H,U,f) =-0.423E-03 0.423E-03-0.139E-07
CGA:   5    -0.497587504386E+03   -0.52240E-03   -0.52238E-03  3904   0.730E-03-0.399E-06
 gam= 0.347 trial= 0.554  step= 0.562 mean= 0.554
 gam= 0.393 g(H,U,f)=  0.243E-03 0.440E-04 0.200E-07 ort(H,U,f) =-0.153E-03 0.154E-03 0.794E-08
CGA:   6    -0.497587709485E+03   -0.20510E-03   -0.20509E-03  3904   0.287E-03 0.833E-06
 gam= 0.393 trial= 0.555  step= 0.600 mean= 0.555
 gam= 0.331 g(H,U,f)=  0.877E-04 0.722E-05 0.543E-08 ort(H,U,f) =-0.376E-04 0.377E-04-0.822E-08
CGA:   7    -0.497587795599E+03   -0.86113E-04   -0.86112E-04  3904   0.950E-04 0.925E-07
 gam= 0.331 trial= 0.557  step= 0.567 mean= 0.557
 gam= 0.269 g(H,U,f)=  0.241E-04 0.141E-05 0.142E-08 ort(H,U,f) =-0.546E-05 0.558E-05-0.777E-09
CGA:   8    -0.497587822521E+03   -0.26923E-04   -0.26923E-04  3904   0.255E-04 0.115E-06
 gam= 0.269 trial= 0.557  step= 0.590 mean= 0.557
 gam= 0.242 g(H,U,f)=  0.571E-05 0.479E-06 0.186E-09 ort(H,U,f) =-0.581E-06 0.713E-06-0.172E-09
CGA:   9    -0.497587830062E+03   -0.75404E-05   -0.75373E-05  3904   0.619E-05 0.132E-06
 gam= 0.242 trial= 0.559  step= 0.607 mean= 0.559
 gam= 0.271 g(H,U,f)=  0.140E-05 0.280E-06 0.994E-10 ort(H,U,f) =-0.299E-06 0.351E-06 0.130E-10
CGA:  10    -0.497587831953E+03   -0.18912E-05   -0.18896E-05  3904   0.168E-05 0.522E-07
 gam= 0.271 trial= 0.561  step= 0.678 mean= 0.561
 gam= 0.404 g(H,U,f)=  0.485E-06 0.192E-06 0.617E-10 ort(H,U,f) =-0.206E-06 0.273E-06-0.127E-10
CGA:  11    -0.497587832531E+03   -0.57825E-06   -0.57353E-06  3904   0.677E-06 0.663E-07
 gam= 0.404 trial= 0.567  step= 0.852 mean= 0.567
 final diagonalization
  11 F= -.49758783E+03 E0= -.49758106E+03  d E =-.215053E-04  mag=    94.0000
quench:  g(F)=  0.000E+00 g(S)=  0.000E+00 dE (1.order)= 0.000E+00
 bond charge predicted
       N       E                     dE             d eps       ncg     rms          ort
 gam= 0.000 g(H,U,f)=  0.804E-01 0.608E-02 0.609E-05 ort(H,U,f) = 0.000E+00 0.000E+00 0.000E+00
SDA:   1    -0.497554060081E+03    0.33772E-01    0.00000E+00  3904   0.864E-01 0.000E+00
 gam= 0.000 trial= 0.582  step= 0.521 mean= 0.582
 gam= 0.479 g(H,U,f)=  0.392E-01 0.223E-02 0.756E-05 ort(H,U,f) =-0.297E-02 0.297E-02-0.666E-05
CGA:   2    -0.497576564386E+03   -0.22504E-01   -0.22504E-01  3904   0.414E-01-0.174E-05
 gam= 0.479 trial= 0.578  step= 0.397 mean= 0.578
 gam= 0.214 g(H,U,f)=  0.768E-02 0.117E-02 0.576E-06 ort(H,U,f) =-0.259E-02 0.259E-02 0.113E-05
CGA:   3    -0.497584786051E+03   -0.82217E-02   -0.82217E-02  3904   0.886E-02-0.263E-06
 gam= 0.214 trial= 0.569  step= 0.464 mean= 0.569
 gam= 0.325 g(H,U,f)=  0.231E-02 0.561E-03 0.227E-06 ort(H,U,f) =-0.113E-02 0.113E-02-0.458E-06
CGA:   4    -0.497586842531E+03   -0.20565E-02   -0.20565E-02  3904   0.288E-02 0.275E-06
 gam= 0.325 trial= 0.564  step= 0.495 mean= 0.564
 gam= 0.345 g(H,U,f)=  0.780E-03 0.212E-03 0.310E-07 ort(H,U,f) =-0.569E-03 0.569E-03-0.191E-07
CGA:   5    -0.497587554131E+03   -0.71160E-03   -0.71156E-03  3904   0.992E-03-0.224E-06
 gam= 0.345 trial= 0.561  step= 0.562 mean= 0.561
 gam= 0.395 g(H,U,f)=  0.330E-03 0.615E-04 0.292E-07 ort(H,U,f) =-0.209E-03 0.210E-03 0.150E-07
CGA:   6    -0.497587833202E+03   -0.27907E-03   -0.27904E-03  3904   0.392E-03 0.999E-06
 gam= 0.395 trial= 0.561  step= 0.601 mean= 0.561
 gam= 0.334 g(H,U,f)=  0.120E-03 0.102E-04 0.670E-08 ort(H,U,f) =-0.525E-04 0.528E-04-0.119E-07
CGA:   7    -0.497587951045E+03   -0.11784E-03   -0.11784E-03  3904   0.131E-03 0.261E-06
 gam= 0.334 trial= 0.563  step= 0.568 mean= 0.563
 gam= 0.270 g(H,U,f)=  0.334E-04 0.195E-05 0.214E-08 ort(H,U,f) =-0.777E-05 0.798E-05-0.891E-09
CGA:   8    -0.497587988164E+03   -0.37120E-04   -0.37120E-04  3904   0.353E-04 0.205E-06
 gam= 0.270 trial= 0.563  step= 0.589 mean= 0.563
 gam= 0.241 g(H,U,f)=  0.786E-05 0.640E-06 0.209E-09 ort(H,U,f) =-0.810E-06 0.979E-06-0.177E-09
CGA:   9    -0.497587998575E+03   -0.10411E-04   -0.10406E-04  3904   0.850E-05 0.169E-06
 gam= 0.241 trial= 0.564  step= 0.606 mean= 0.564
 gam= 0.269 g(H,U,f)=  0.192E-05 0.370E-06 0.146E-09 ort(H,U,f) =-0.387E-06 0.462E-06 0.281E-10
CGA:  10    -0.497588001166E+03   -0.25906E-05   -0.25874E-05  3904   0.229E-05 0.744E-07
 gam= 0.269 trial= 0.566  step= 0.677 mean= 0.566
 gam= 0.400 g(H,U,f)=  0.663E-06 0.254E-06 0.793E-10 ort(H,U,f) =-0.272E-06 0.358E-06-0.121E-10
CGA:  11    -0.497588001953E+03   -0.78716E-06   -0.78215E-06  3904   0.917E-06 0.857E-07
 gam= 0.400 trial= 0.572  step= 0.834 mean= 0.572
 final diagonalization
  12 F= -.49758800E+03 E0= -.49758123E+03  d E =-.169422E-03  mag=    94.0000
quench:  g(F)=  0.000E+00 g(S)=  0.000E+00 dE (1.order)= 0.000E+00
 bond charge predicted
       N       E                     dE             d eps       ncg     rms          ort
 gam= 0.000 g(H,U,f)=  0.113E+00 0.833E-02 0.833E-05 ort(H,U,f) = 0.000E+00 0.000E+00 0.000E+00
SDA:   1    -0.497540601908E+03    0.47399E-01    0.00000E+00  3904   0.122E+00 0.000E+00
 gam= 0.000 trial= 0.585  step= 0.524 mean= 0.585
 gam= 0.475 g(H,U,f)=  0.547E-01 0.303E-02 0.990E-05 ort(H,U,f) =-0.402E-02 0.403E-02-0.888E-05
CGA:   2    -0.497572448288E+03   -0.31846E-01   -0.31846E-01  3904   0.578E-01-0.307E-05
 gam= 0.475 trial= 0.582  step= 0.395 mean= 0.582
 gam= 0.213 g(H,U,f)=  0.107E-01 0.161E-02 0.795E-06 ort(H,U,f) =-0.352E-02 0.352E-02 0.149E-05
CGA:   3    -0.497583869666E+03   -0.11421E-01   -0.11421E-01  3904   0.123E-01-0.527E-07
 gam= 0.213 trial= 0.573  step= 0.464 mean= 0.573
 gam= 0.323 g(H,U,f)=  0.321E-02 0.769E-03 0.272E-06 ort(H,U,f) =-0.155E-02 0.155E-02-0.560E-06
CGA:   4    -0.497586731291E+03   -0.28616E-02   -0.28617E-02  3904   0.398E-02 0.525E-06
 gam= 0.323 trial= 0.567  step= 0.494 mean= 0.567
 gam= 0.345 g(H,U,f)=  0.108E-02 0.294E-03 0.480E-07 ort(H,U,f) =-0.781E-03 0.781E-03-0.250E-07
CGA:   5    -0.497587714443E+03   -0.98315E-03   -0.98312E-03  3904   0.137E-02-0.236E-06
 gam= 0.345 trial= 0.564  step= 0.563 mean= 0.564
 gam= 0.395 g(H,U,f)=  0.455E-03 0.860E-04 0.398E-07 ort(H,U,f) =-0.289E-03 0.290E-03 0.229E-07
CGA:   6    -0.497588100052E+03   -0.38561E-03   -0.38559E-03  3904   0.541E-03 0.107E-05
 gam= 0.395 trial= 0.564  step= 0.602 mean= 0.564
 gam= 0.335 g(H,U,f)=  0.167E-03 0.144E-04 0.802E-08 ort(H,U,f) =-0.734E-04 0.739E-04-0.152E-07
CGA:   7    -0.497588263145E+03   -0.16309E-03   -0.16308E-03  3904   0.181E-03 0.510E-06
 gam= 0.335 trial= 0.565  step= 0.569 mean= 0.565
 gam= 0.271 g(H,U,f)=  0.464E-04 0.270E-05 0.305E-08 ort(H,U,f) =-0.110E-04 0.113E-04-0.117E-08
CGA:   8    -0.497588314791E+03   -0.51646E-04   -0.51646E-04  3904   0.491E-04 0.347E-06
 gam= 0.271 trial= 0.566  step= 0.588 mean= 0.566
 gam= 0.240 g(H,U,f)=  0.109E-04 0.865E-06 0.265E-09 ort(H,U,f) =-0.114E-05 0.135E-05-0.194E-09
CGA:   9    -0.497588329268E+03   -0.14477E-04   -0.14473E-04  3904   0.118E-04 0.208E-06
 gam= 0.240 trial= 0.567  step= 0.604 mean= 0.567
 gam= 0.268 g(H,U,f)=  0.267E-05 0.496E-06 0.196E-09 ort(H,U,f) =-0.514E-06 0.617E-06 0.352E-10
CGA:  10    -0.497588332852E+03   -0.35839E-05   -0.35809E-05  3904   0.316E-05 0.103E-06
 gam= 0.268 trial= 0.569  step= 0.674 mean= 0.569
 gam= 0.397 g(H,U,f)=  0.916E-06 0.339E-06 0.128E-09 ort(H,U,f) =-0.359E-06 0.474E-06-0.224E-10
CGA:  11    -0.497588333934E+03   -0.10819E-05   -0.10757E-05  3904   0.125E-05 0.115E-06
 gam= 0.397 trial= 0.574  step= 0.815 mean= 0.574
 gam= 0.673 g(H,U,f)=  0.591E-06 0.252E-06 0.225E-09 ort(H,U,f) =-0.334E-06 0.381E-06-0.110E-09
CGA:  12    -0.497588334468E+03   -0.53478E-06   -0.52977E-06  3904   0.844E-06 0.474E-07
 gam= 0.673 trial= 0.586  step= 0.886 mean= 0.586
 final diagonalization
  13 F= -.49758833E+03 E0= -.49758156E+03  d E =-.332515E-03  mag=    94.0000
quench:  g(F)=  0.000E+00 g(S)=  0.000E+00 dE (1.order)= 0.000E+00
 bond charge predicted
       N       E                     dE             d eps       ncg     rms          ort
 gam= 0.000 g(H,U,f)=  0.153E+00 0.101E-01 0.882E-05 ort(H,U,f) = 0.000E+00 0.000E+00 0.000E+00
SDA:   1    -0.497524816451E+03    0.63517E-01    0.00000E+00  3904   0.163E+00 0.000E+00
 gam= 0.000 trial= 0.601  step= 0.537 mean= 0.601
 gam= 0.457 g(H,U,f)=  0.710E-01 0.359E-02 0.116E-04 ort(H,U,f) =-0.454E-02 0.454E-02-0.982E-05
CGA:   2    -0.497568665268E+03   -0.43849E-01   -0.43849E-01  3904   0.746E-01-0.441E-05
 gam= 0.457 trial= 0.598  step= 0.389 mean= 0.598
 gam= 0.213 g(H,U,f)=  0.139E-01 0.194E-02 0.656E-06 ort(H,U,f) =-0.408E-02 0.408E-02 0.143E-05
CGA:   3    -0.497583190711E+03   -0.14525E-01   -0.14525E-01  3904   0.159E-01 0.772E-07
 gam= 0.213 trial= 0.587  step= 0.463 mean= 0.587
 gam= 0.315 g(H,U,f)=  0.406E-02 0.927E-03 0.277E-06 ort(H,U,f) =-0.183E-02 0.183E-02-0.499E-06
CGA:   4    -0.497586865375E+03   -0.36747E-02   -0.36747E-02  3904   0.499E-02 0.496E-06
 gam= 0.315 trial= 0.581  step= 0.490 mean= 0.581
 gam= 0.342 g(H,U,f)=  0.134E-02 0.367E-03 0.713E-07 ort(H,U,f) =-0.941E-03 0.941E-03-0.429E-07
CGA:   5    -0.497588088407E+03   -0.12230E-02   -0.12230E-02  3904   0.171E-02-0.628E-07
 gam= 0.342 trial= 0.577  step= 0.563 mean= 0.577
 gam= 0.395 g(H,U,f)=  0.560E-03 0.113E-03 0.441E-07 ort(H,U,f) =-0.363E-03 0.364E-03 0.282E-07
CGA:   6    -0.497588568602E+03   -0.48020E-03   -0.48019E-03  3904   0.673E-03 0.123E-05
 gam= 0.395 trial= 0.576  step= 0.606 mean= 0.576
 gam= 0.343 g(H,U,f)=  0.211E-03 0.200E-04 0.106E-07 ort(H,U,f) =-0.969E-04 0.977E-04-0.186E-07
CGA:   7    -0.497588772607E+03   -0.20401E-03   -0.20399E-03  3904   0.231E-03 0.791E-06
 gam= 0.343 trial= 0.577  step= 0.574 mean= 0.577
 gam= 0.274 g(H,U,f)=  0.598E-04 0.350E-05 0.444E-08 ort(H,U,f) =-0.153E-04 0.158E-04-0.217E-08
CGA:   8    -0.497588838924E+03   -0.66317E-04   -0.66318E-04  3904   0.633E-04 0.536E-06
 gam= 0.274 trial= 0.577  step= 0.586 mean= 0.577
 gam= 0.239 g(H,U,f)=  0.141E-04 0.104E-05 0.419E-09 ort(H,U,f) =-0.154E-05 0.180E-05-0.574E-09
CGA:   9    -0.497588857490E+03   -0.18566E-04   -0.18565E-04  3904   0.151E-04 0.255E-06
 gam= 0.239 trial= 0.578  step= 0.598 mean= 0.578
 gam= 0.265 g(H,U,f)=  0.342E-05 0.591E-06 0.406E-09 ort(H,U,f) =-0.566E-06 0.720E-06-0.567E-10
CGA:  10    -0.497588862032E+03   -0.45414E-05   -0.45398E-05  3904   0.401E-05 0.155E-06
 gam= 0.265 trial= 0.579  step= 0.670 mean= 0.579
 gam= 0.394 g(H,U,f)=  0.117E-05 0.407E-06 0.268E-09 ort(H,U,f) =-0.417E-06 0.548E-06-0.211E-09
CGA:  11    -0.497588863393E+03   -0.13615E-05   -0.13557E-05  3904   0.158E-05 0.131E-06
 gam= 0.394 trial= 0.583  step= 0.771 mean= 0.583
 gam= 0.650 g(H,U,f)=  0.712E-06 0.312E-06 0.558E-09 ort(H,U,f) =-0.380E-06 0.451E-06-0.209E-09
CGA:  12    -0.497588864028E+03   -0.63493E-06   -0.62830E-06  3904   0.103E-05 0.707E-07
 gam= 0.650 trial= 0.593  step= 0.826 mean= 0.593
 final diagonalization
  14 F= -.49758886E+03 E0= -.49758208E+03  d E =-.529560E-03  mag=    94.0000
quench:  g(F)=  0.000E+00 g(S)=  0.000E+00 dE (1.order)= 0.000E+00
 reached required accuracy - stopping structural energy minimisation
 writing wavefunctions
