 224 224   0   0
  0.1357572E+02  0.1537960E-08  0.1537962E-08  0.1395899E-08  0.5000000E-15
  1.000000000000000E-004
  CAR 
 unknown system                          
     17.69932948    -54.42216954  301      5.25837090      1.00000000
    -54.422  0.0000E+00  0.0000E+00  0.0000E+00  0.0000E+00
    -54.182  0.0000E+00  0.0000E+00  0.0000E+00  0.0000E+00
    -53.941  0.0000E+00  0.0000E+00  0.0000E+00  0.0000E+00
    -53.701  0.0000E+00  0.0000E+00  0.0000E+00  0.0000E+00
    -53.461  0.0000E+00  0.0000E+00  0.0000E+00  0.0000E+00
    -53.220  0.0000E+00  0.0000E+00  0.0000E+00  0.0000E+00
    -52.980  0.0000E+00  0.0000E+00  0.0000E+00  0.0000E+00
    -52.739  0.0000E+00  0.0000E+00  0.0000E+00  0.0000E+00
    -52.499  0.0000E+00  0.0000E+00  0.0000E+00  0.0000E+00
    -52.259  0.0000E+00  0.0000E+00  0.0000E+00  0.0000E+00
    -52.018  0.0000E+00  0.0000E+00  0.0000E+00  0.0000E+00
    -51.778  0.0000E+00  0.0000E+00  0.0000E+00  0.0000E+00
    -51.537  0.0000E+00  0.0000E+00  0.0000E+00  0.0000E+00
    -51.297  0.1286E-02  0.0000E+00  0.3091E-03  0.0000E+00
    -51.056  0.2639E+03  0.0000E+00  0.6343E+02  0.0000E+00
    -50.816  0.2362E+01  0.0000E+00  0.6400E+02  0.0000E+00
    -50.576  0.0000E+00  0.0000E+00  0.6400E+02  0.0000E+00
    -50.335  0.0000E+00  0.0000E+00  0.6400E+02  0.0000E+00
    -50.095  0.0000E+00  0.0000E+00  0.6400E+02  0.0000E+00
    -49.854  0.9666E-06  0.0000E+00  0.6400E+02  0.0000E+00
    -49.614  0.4335E+03  0.0000E+00  0.1682E+03  0.0000E+00
    -49.374  0.9897E+02  0.0000E+00  0.1920E+03  0.0000E+00
    -49.133  0.0000E+00  0.0000E+00  0.1920E+03  0.0000E+00
    -48.893  0.0000E+00  0.0000E+00  0.1920E+03  0.0000E+00
    -48.652  0.0000E+00  0.0000E+00  0.1920E+03  0.0000E+00
    -48.412  0.0000E+00  0.0000E+00  0.1920E+03  0.0000E+00
    -48.172  0.0000E+00  0.0000E+00  0.1920E+03  0.0000E+00
    -47.931  0.0000E+00  0.0000E+00  0.1920E+03  0.0000E+00
    -47.691  0.0000E+00  0.0000E+00  0.1920E+03  0.0000E+00
    -47.450  0.0000E+00  0.0000E+00  0.1920E+03  0.0000E+00
    -47.210  0.0000E+00  0.0000E+00  0.1920E+03  0.0000E+00
    -46.970  0.0000E+00  0.0000E+00  0.1920E+03  0.0000E+00
    -46.729  0.0000E+00  0.0000E+00  0.1920E+03  0.0000E+00
    -46.489  0.0000E+00  0.6541E+00  0.1920E+03  0.1572E+00
    -46.248  0.0000E+00  0.2656E+03  0.1920E+03  0.6400E+02
    -46.008  0.0000E+00  0.6006E+01  0.1920E+03  0.6544E+02
    -45.768  0.0000E+00  0.5264E+03  0.1920E+03  0.1920E+03
    -45.527  0.0000E+00  0.9559E-03  0.1920E+03  0.1920E+03
    -45.287  0.0000E+00  0.0000E+00  0.1920E+03  0.1920E+03
    -45.046  0.0000E+00  0.0000E+00  0.1920E+03  0.1920E+03
    -44.806  0.0000E+00  0.0000E+00  0.1920E+03  0.1920E+03
    -44.566  0.0000E+00  0.0000E+00  0.1920E+03  0.1920E+03
    -44.325  0.0000E+00  0.0000E+00  0.1920E+03  0.1920E+03
    -44.085  0.0000E+00  0.0000E+00  0.1920E+03  0.1920E+03
    -43.844  0.0000E+00  0.0000E+00  0.1920E+03  0.1920E+03
    -43.604  0.0000E+00  0.0000E+00  0.1920E+03  0.1920E+03
    -43.364  0.0000E+00  0.0000E+00  0.1920E+03  0.1920E+03
    -43.123  0.0000E+00  0.0000E+00  0.1920E+03  0.1920E+03
    -42.883  0.0000E+00  0.0000E+00  0.1920E+03  0.1920E+03
    -42.642  0.0000E+00  0.0000E+00  0.1920E+03  0.1920E+03
    -42.402  0.0000E+00  0.0000E+00  0.1920E+03  0.1920E+03
    -42.162  0.0000E+00  0.0000E+00  0.1920E+03  0.1920E+03
    -41.921  0.0000E+00  0.0000E+00  0.1920E+03  0.1920E+03
    -41.681  0.0000E+00  0.0000E+00  0.1920E+03  0.1920E+03
    -41.440  0.0000E+00  0.0000E+00  0.1920E+03  0.1920E+03
    -41.200  0.0000E+00  0.0000E+00  0.1920E+03  0.1920E+03
    -40.959  0.0000E+00  0.0000E+00  0.1920E+03  0.1920E+03
    -40.719  0.0000E+00  0.0000E+00  0.1920E+03  0.1920E+03
    -40.479  0.0000E+00  0.0000E+00  0.1920E+03  0.1920E+03
    -40.238  0.0000E+00  0.0000E+00  0.1920E+03  0.1920E+03
    -39.998  0.0000E+00  0.0000E+00  0.1920E+03  0.1920E+03
    -39.757  0.1919E-01  0.1748E-01  0.1920E+03  0.1920E+03
    -39.517  0.2651E+03  0.2650E+03  0.2557E+03  0.2557E+03
    -39.277  0.1093E+01  0.1159E+01  0.2560E+03  0.2560E+03
    -39.036  0.0000E+00  0.0000E+00  0.2560E+03  0.2560E+03
    -38.796  0.0000E+00  0.0000E+00  0.2560E+03  0.2560E+03
    -38.555  0.0000E+00  0.0000E+00  0.2560E+03  0.2560E+03
    -38.315  0.0000E+00  0.0000E+00  0.2560E+03  0.2560E+03
    -38.075  0.0000E+00  0.0000E+00  0.2560E+03  0.2560E+03
    -37.834  0.0000E+00  0.0000E+00  0.2560E+03  0.2560E+03
    -37.594  0.0000E+00  0.0000E+00  0.2560E+03  0.2560E+03
    -37.353  0.0000E+00  0.0000E+00  0.2560E+03  0.2560E+03
    -37.113  0.0000E+00  0.0000E+00  0.2560E+03  0.2560E+03
    -36.873  0.0000E+00  0.0000E+00  0.2560E+03  0.2560E+03
    -36.632  0.0000E+00  0.0000E+00  0.2560E+03  0.2560E+03
    -36.392  0.0000E+00  0.0000E+00  0.2560E+03  0.2560E+03
    -36.151  0.0000E+00  0.0000E+00  0.2560E+03  0.2560E+03
    -35.911  0.0000E+00  0.0000E+00  0.2560E+03  0.2560E+03
    -35.671  0.0000E+00  0.0000E+00  0.2560E+03  0.2560E+03
    -35.430  0.0000E+00  0.0000E+00  0.2560E+03  0.2560E+03
    -35.190  0.0000E+00  0.0000E+00  0.2560E+03  0.2560E+03
    -34.949  0.0000E+00  0.0000E+00  0.2560E+03  0.2560E+03
    -34.709  0.0000E+00  0.0000E+00  0.2560E+03  0.2560E+03
    -34.469  0.0000E+00  0.0000E+00  0.2560E+03  0.2560E+03
    -34.228  0.0000E+00  0.0000E+00  0.2560E+03  0.2560E+03
    -33.988  0.0000E+00  0.0000E+00  0.2560E+03  0.2560E+03
    -33.747  0.0000E+00  0.0000E+00  0.2560E+03  0.2560E+03
    -33.507  0.0000E+00  0.0000E+00  0.2560E+03  0.2560E+03
    -33.267  0.0000E+00  0.0000E+00  0.2560E+03  0.2560E+03
    -33.026  0.0000E+00  0.0000E+00  0.2560E+03  0.2560E+03
    -32.786  0.0000E+00  0.0000E+00  0.2560E+03  0.2560E+03
    -32.545  0.0000E+00  0.0000E+00  0.2560E+03  0.2560E+03
    -32.305  0.0000E+00  0.0000E+00  0.2560E+03  0.2560E+03
    -32.065  0.0000E+00  0.0000E+00  0.2560E+03  0.2560E+03
    -31.824  0.0000E+00  0.0000E+00  0.2560E+03  0.2560E+03
    -31.584  0.0000E+00  0.0000E+00  0.2560E+03  0.2560E+03
    -31.343  0.0000E+00  0.0000E+00  0.2560E+03  0.2560E+03
    -31.103  0.0000E+00  0.0000E+00  0.2560E+03  0.2560E+03
    -30.862  0.0000E+00  0.0000E+00  0.2560E+03  0.2560E+03
    -30.622  0.0000E+00  0.0000E+00  0.2560E+03  0.2560E+03
    -30.382  0.0000E+00  0.0000E+00  0.2560E+03  0.2560E+03
    -30.141  0.0000E+00  0.0000E+00  0.2560E+03  0.2560E+03
    -29.901  0.0000E+00  0.0000E+00  0.2560E+03  0.2560E+03
    -29.660  0.0000E+00  0.0000E+00  0.2560E+03  0.2560E+03
    -29.420  0.0000E+00  0.0000E+00  0.2560E+03  0.2560E+03
    -29.180  0.0000E+00  0.0000E+00  0.2560E+03  0.2560E+03
    -28.939  0.0000E+00  0.0000E+00  0.2560E+03  0.2560E+03
    -28.699  0.0000E+00  0.0000E+00  0.2560E+03  0.2560E+03
    -28.458  0.0000E+00  0.0000E+00  0.2560E+03  0.2560E+03
    -28.218  0.0000E+00  0.0000E+00  0.2560E+03  0.2560E+03
    -27.978  0.0000E+00  0.0000E+00  0.2560E+03  0.2560E+03
    -27.737  0.0000E+00  0.0000E+00  0.2560E+03  0.2560E+03
    -27.497  0.0000E+00  0.0000E+00  0.2560E+03  0.2560E+03
    -27.256  0.0000E+00  0.0000E+00  0.2560E+03  0.2560E+03
    -27.016  0.0000E+00  0.0000E+00  0.2560E+03  0.2560E+03
    -26.776  0.0000E+00  0.0000E+00  0.2560E+03  0.2560E+03
    -26.535  0.0000E+00  0.0000E+00  0.2560E+03  0.2560E+03
    -26.295  0.0000E+00  0.0000E+00  0.2560E+03  0.2560E+03
    -26.054  0.0000E+00  0.0000E+00  0.2560E+03  0.2560E+03
    -25.814  0.0000E+00  0.0000E+00  0.2560E+03  0.2560E+03
    -25.574  0.0000E+00  0.0000E+00  0.2560E+03  0.2560E+03
    -25.333  0.0000E+00  0.0000E+00  0.2560E+03  0.2560E+03
    -25.093  0.0000E+00  0.0000E+00  0.2560E+03  0.2560E+03
    -24.852  0.0000E+00  0.0000E+00  0.2560E+03  0.2560E+03
    -24.612  0.0000E+00  0.0000E+00  0.2560E+03  0.2560E+03
    -24.372  0.0000E+00  0.0000E+00  0.2560E+03  0.2560E+03
    -24.131  0.0000E+00  0.0000E+00  0.2560E+03  0.2560E+03
    -23.891  0.0000E+00  0.0000E+00  0.2560E+03  0.2560E+03
    -23.650  0.0000E+00  0.0000E+00  0.2560E+03  0.2560E+03
    -23.410  0.0000E+00  0.0000E+00  0.2560E+03  0.2560E+03
    -23.170  0.0000E+00  0.0000E+00  0.2560E+03  0.2560E+03
    -22.929  0.0000E+00  0.0000E+00  0.2560E+03  0.2560E+03
    -22.689  0.0000E+00  0.0000E+00  0.2560E+03  0.2560E+03
    -22.448  0.0000E+00  0.0000E+00  0.2560E+03  0.2560E+03
    -22.208  0.0000E+00  0.0000E+00  0.2560E+03  0.2560E+03
    -21.967  0.0000E+00  0.0000E+00  0.2560E+03  0.2560E+03
    -21.727  0.0000E+00  0.0000E+00  0.2560E+03  0.2560E+03
    -21.487  0.0000E+00  0.0000E+00  0.2560E+03  0.2560E+03
    -21.246  0.0000E+00  0.0000E+00  0.2560E+03  0.2560E+03
    -21.006  0.0000E+00  0.0000E+00  0.2560E+03  0.2560E+03
    -20.765  0.0000E+00  0.0000E+00  0.2560E+03  0.2560E+03
    -20.525  0.0000E+00  0.0000E+00  0.2560E+03  0.2560E+03
    -20.285  0.0000E+00  0.0000E+00  0.2560E+03  0.2560E+03
    -20.044  0.0000E+00  0.0000E+00  0.2560E+03  0.2560E+03
    -19.804  0.0000E+00  0.0000E+00  0.2560E+03  0.2560E+03
    -19.563  0.0000E+00  0.0000E+00  0.2560E+03  0.2560E+03
    -19.323  0.0000E+00  0.0000E+00  0.2560E+03  0.2560E+03
    -19.083  0.0000E+00  0.0000E+00  0.2560E+03  0.2560E+03
    -18.842  0.0000E+00  0.0000E+00  0.2560E+03  0.2560E+03
    -18.602  0.0000E+00  0.0000E+00  0.2560E+03  0.2560E+03
    -18.361  0.0000E+00  0.0000E+00  0.2560E+03  0.2560E+03
    -18.121  0.0000E+00  0.0000E+00  0.2560E+03  0.2560E+03
    -17.881  0.0000E+00  0.0000E+00  0.2560E+03  0.2560E+03
    -17.640  0.0000E+00  0.0000E+00  0.2560E+03  0.2560E+03
    -17.400  0.0000E+00  0.0000E+00  0.2560E+03  0.2560E+03
    -17.159  0.0000E+00  0.0000E+00  0.2560E+03  0.2560E+03
    -16.919  0.0000E+00  0.0000E+00  0.2560E+03  0.2560E+03
    -16.679  0.0000E+00  0.0000E+00  0.2560E+03  0.2560E+03
    -16.438  0.0000E+00  0.0000E+00  0.2560E+03  0.2560E+03
    -16.198  0.0000E+00  0.0000E+00  0.2560E+03  0.2560E+03
    -15.957  0.0000E+00  0.0000E+00  0.2560E+03  0.2560E+03
    -15.717  0.0000E+00  0.0000E+00  0.2560E+03  0.2560E+03
    -15.477  0.0000E+00  0.0000E+00  0.2560E+03  0.2560E+03
    -15.236  0.0000E+00  0.0000E+00  0.2560E+03  0.2560E+03
    -14.996  0.0000E+00  0.0000E+00  0.2560E+03  0.2560E+03
    -14.755  0.0000E+00  0.0000E+00  0.2560E+03  0.2560E+03
    -14.515  0.0000E+00  0.0000E+00  0.2560E+03  0.2560E+03
    -14.275  0.0000E+00  0.0000E+00  0.2560E+03  0.2560E+03
    -14.034  0.0000E+00  0.0000E+00  0.2560E+03  0.2560E+03
    -13.794  0.0000E+00  0.0000E+00  0.2560E+03  0.2560E+03
    -13.553  0.0000E+00  0.0000E+00  0.2560E+03  0.2560E+03
    -13.313  0.0000E+00  0.0000E+00  0.2560E+03  0.2560E+03
    -13.073  0.0000E+00  0.0000E+00  0.2560E+03  0.2560E+03
    -12.832  0.8166E-01  0.0000E+00  0.2560E+03  0.2560E+03
    -12.592  0.1319E+03  0.1626E-02  0.2877E+03  0.2560E+03
    -12.351  0.1096E+01  0.1236E+03  0.2880E+03  0.2857E+03
    -12.111  0.0000E+00  0.9525E+01  0.2880E+03  0.2880E+03
    -11.870  0.0000E+00  0.0000E+00  0.2880E+03  0.2880E+03
    -11.630  0.0000E+00  0.0000E+00  0.2880E+03  0.2880E+03
    -11.390  0.0000E+00  0.0000E+00  0.2880E+03  0.2880E+03
    -11.149  0.0000E+00  0.0000E+00  0.2880E+03  0.2880E+03
    -10.909  0.0000E+00  0.0000E+00  0.2880E+03  0.2880E+03
    -10.668  0.0000E+00  0.0000E+00  0.2880E+03  0.2880E+03
    -10.428  0.0000E+00  0.0000E+00  0.2880E+03  0.2880E+03
    -10.188  0.0000E+00  0.0000E+00  0.2880E+03  0.2880E+03
     -9.947  0.0000E+00  0.0000E+00  0.2880E+03  0.2880E+03
     -9.707  0.0000E+00  0.0000E+00  0.2880E+03  0.2880E+03
     -9.466  0.0000E+00  0.0000E+00  0.2880E+03  0.2880E+03
     -9.226  0.0000E+00  0.0000E+00  0.2880E+03  0.2880E+03
     -8.986  0.0000E+00  0.0000E+00  0.2880E+03  0.2880E+03
     -8.745  0.0000E+00  0.0000E+00  0.2880E+03  0.2880E+03
     -8.505  0.0000E+00  0.0000E+00  0.2880E+03  0.2880E+03
     -8.264  0.0000E+00  0.0000E+00  0.2880E+03  0.2880E+03
     -8.024  0.6521E-10  0.0000E+00  0.2880E+03  0.2880E+03
     -7.784  0.9704E+00  0.5006E-07  0.2882E+03  0.2880E+03
     -7.543  0.1884E+02  0.2948E+01  0.2928E+03  0.2887E+03
     -7.303  0.2827E+02  0.2247E+02  0.2996E+03  0.2941E+03
     -7.062  0.5413E+02  0.3112E+02  0.3126E+03  0.3016E+03
     -6.822  0.1469E+03  0.4893E+02  0.3479E+03  0.3134E+03
     -6.582  0.1712E+02  0.1390E+03  0.3520E+03  0.3468E+03
     -6.341  0.0000E+00  0.2176E+02  0.3520E+03  0.3520E+03
     -6.101  0.0000E+00  0.9621E-05  0.3520E+03  0.3520E+03
     -5.860  0.0000E+00  0.0000E+00  0.3520E+03  0.3520E+03
     -5.620  0.0000E+00  0.0000E+00  0.3520E+03  0.3520E+03
     -5.380  0.0000E+00  0.0000E+00  0.3520E+03  0.3520E+03
     -5.139  0.0000E+00  0.0000E+00  0.3520E+03  0.3520E+03
     -4.899  0.0000E+00  0.0000E+00  0.3520E+03  0.3520E+03
     -4.658  0.0000E+00  0.0000E+00  0.3520E+03  0.3520E+03
     -4.418  0.0000E+00  0.0000E+00  0.3520E+03  0.3520E+03
     -4.178  0.0000E+00  0.0000E+00  0.3520E+03  0.3520E+03
     -3.937  0.0000E+00  0.0000E+00  0.3520E+03  0.3520E+03
     -3.697  0.0000E+00  0.0000E+00  0.3520E+03  0.3520E+03
     -3.456  0.0000E+00  0.0000E+00  0.3520E+03  0.3520E+03
     -3.216  0.0000E+00  0.0000E+00  0.3520E+03  0.3520E+03
     -2.976  0.0000E+00  0.0000E+00  0.3520E+03  0.3520E+03
     -2.735  0.0000E+00  0.0000E+00  0.3520E+03  0.3520E+03
     -2.495  0.0000E+00  0.0000E+00  0.3520E+03  0.3520E+03
     -2.254  0.0000E+00  0.0000E+00  0.3520E+03  0.3520E+03
     -2.014  0.0000E+00  0.0000E+00  0.3520E+03  0.3520E+03
     -1.773  0.6039E-12  0.0000E+00  0.3520E+03  0.3520E+03
     -1.533  0.1302E+01  0.0000E+00  0.3523E+03  0.3520E+03
     -1.293  0.1003E+03  0.0000E+00  0.3764E+03  0.3520E+03
     -1.052  0.3150E+02  0.0000E+00  0.3840E+03  0.3520E+03
     -0.812  0.1265E+02  0.0000E+00  0.3870E+03  0.3520E+03
     -0.571  0.8995E+02  0.9217E-05  0.4087E+03  0.3520E+03
     -0.331  0.2246E+03  0.4156E+01  0.4627E+03  0.3530E+03
     -0.091  0.2016E+03  0.2461E+02  0.5111E+03  0.3589E+03
      0.150  0.1764E+03  0.4116E+02  0.5535E+03  0.3688E+03
      0.390  0.1515E+03  0.4248E+02  0.5900E+03  0.3790E+03
      0.631  0.1193E+03  0.7217E+02  0.6186E+03  0.3964E+03
      0.871  0.5417E+02  0.6018E+02  0.6317E+03  0.4108E+03
      1.111  0.7012E+02  0.6553E+02  0.6485E+03  0.4266E+03
      1.352  0.7314E+02  0.6777E+02  0.6661E+03  0.4429E+03
      1.592  0.6803E+02  0.7761E+02  0.6825E+03  0.4615E+03
      1.833  0.1112E+03  0.1112E+03  0.7092E+03  0.4883E+03
      2.073  0.2134E+03  0.6164E+02  0.7605E+03  0.5031E+03
      2.313  0.1396E+03  0.3806E+02  0.7940E+03  0.5122E+03
      2.554  0.8438E+02  0.7771E+02  0.8143E+03  0.5309E+03
      2.794  0.6856E+02  0.1040E+03  0.8308E+03  0.5559E+03
      3.035  0.3518E+02  0.7078E+02  0.8393E+03  0.5729E+03
      3.275  0.4059E+02  0.1316E+03  0.8490E+03  0.6046E+03
      3.515  0.5188E+02  0.1166E+03  0.8615E+03  0.6326E+03
      3.756  0.6738E+02  0.2512E+02  0.8777E+03  0.6386E+03
      3.996  0.8013E+02  0.4429E+02  0.8970E+03  0.6493E+03
      4.237  0.7999E+02  0.1787E+03  0.9162E+03  0.6923E+03
      4.477  0.7557E+02  0.4721E+02  0.9344E+03  0.7036E+03
      4.717  0.2866E+02  0.1617E+01  0.9413E+03  0.7040E+03
      4.958  0.6449E+02  0.0000E+00  0.9568E+03  0.7040E+03
      5.198  0.1349E+02  0.0000E+00  0.9600E+03  0.7040E+03
      5.439  0.0000E+00  0.0000E+00  0.9600E+03  0.7040E+03
      5.679  0.0000E+00  0.0000E+00  0.9600E+03  0.7040E+03
      5.919  0.0000E+00  0.0000E+00  0.9600E+03  0.7040E+03
      6.160  0.0000E+00  0.1116E-06  0.9600E+03  0.7040E+03
      6.400  0.0000E+00  0.1042E+01  0.9600E+03  0.7043E+03
      6.641  0.0000E+00  0.1019E+02  0.9600E+03  0.7067E+03
      6.881  0.0000E+00  0.2677E+02  0.9600E+03  0.7131E+03
      7.122  0.5773E-16  0.6614E+02  0.9600E+03  0.7290E+03
      7.362  0.6377E-01  0.1115E+03  0.9600E+03  0.7559E+03
      7.602  0.1496E+01  0.1393E+03  0.9604E+03  0.7893E+03
      7.843  0.5223E+01  0.1181E+03  0.9616E+03  0.8177E+03
      8.083  0.7090E+01  0.1789E+03  0.9633E+03  0.8608E+03
      8.324  0.9287E+01  0.1451E+03  0.9656E+03  0.8956E+03
      8.564  0.1254E+02  0.6237E+02  0.9686E+03  0.9106E+03
      8.804  0.1463E+02  0.8243E+02  0.9721E+03  0.9304E+03
      9.045  0.2709E+02  0.7275E+02  0.9786E+03  0.9479E+03
      9.285  0.3351E+02  0.5732E+02  0.9867E+03  0.9617E+03
      9.526  0.3565E+02  0.2297E+02  0.9952E+03  0.9672E+03
      9.766  0.5298E+02  0.3405E+02  0.1008E+04  0.9754E+03
     10.006  0.5119E+02  0.2269E+02  0.1020E+04  0.9809E+03
     10.247  0.3366E+02  0.3894E+02  0.1028E+04  0.9902E+03
     10.487  0.2165E+02  0.4322E+02  0.1034E+04  0.1001E+04
     10.728  0.4557E+02  0.6135E+02  0.1045E+04  0.1015E+04
     10.968  0.3307E+02  0.4330E+02  0.1052E+04  0.1026E+04
     11.208  0.4383E+02  0.4016E+02  0.1063E+04  0.1035E+04
     11.449  0.7800E+02  0.3458E+02  0.1082E+04  0.1044E+04
     11.689  0.4266E+02  0.4375E+02  0.1092E+04  0.1054E+04
     11.930  0.6454E+02  0.5218E+02  0.1108E+04  0.1067E+04
     12.170  0.6677E+02  0.5728E+02  0.1124E+04  0.1081E+04
     12.410  0.6921E+02  0.5322E+02  0.1140E+04  0.1093E+04
     12.651  0.6101E+02  0.6709E+02  0.1155E+04  0.1110E+04
     12.891  0.5278E+02  0.7973E+02  0.1168E+04  0.1129E+04
     13.132  0.5841E+02  0.6442E+02  0.1182E+04  0.1144E+04
     13.372  0.4846E+02  0.6644E+02  0.1193E+04  0.1160E+04
     13.612  0.4001E+02  0.6461E+02  0.1203E+04  0.1176E+04
     13.853  0.1873E+02  0.5722E+02  0.1207E+04  0.1189E+04
     14.093  0.2491E+01  0.5304E+02  0.1208E+04  0.1202E+04
     14.334  0.0000E+00  0.2131E+02  0.1208E+04  0.1207E+04
     14.574  0.0000E+00  0.2918E+01  0.1208E+04  0.1208E+04
     14.814  0.0000E+00  0.3928E-05  0.1208E+04  0.1208E+04
     15.055  0.0000E+00  0.0000E+00  0.1208E+04  0.1208E+04
     15.295  0.0000E+00  0.0000E+00  0.1208E+04  0.1208E+04
     15.536  0.0000E+00  0.0000E+00  0.1208E+04  0.1208E+04
     15.776  0.0000E+00  0.0000E+00  0.1208E+04  0.1208E+04
     16.016  0.0000E+00  0.0000E+00  0.1208E+04  0.1208E+04
     16.257  0.0000E+00  0.0000E+00  0.1208E+04  0.1208E+04
     16.497  0.0000E+00  0.0000E+00  0.1208E+04  0.1208E+04
     16.738  0.0000E+00  0.0000E+00  0.1208E+04  0.1208E+04
     16.978  0.0000E+00  0.0000E+00  0.1208E+04  0.1208E+04
     17.219  0.0000E+00  0.0000E+00  0.1208E+04  0.1208E+04
     17.459  0.0000E+00  0.0000E+00  0.1208E+04  0.1208E+04
     17.699  0.0000E+00  0.0000E+00  0.1208E+04  0.1208E+04
