  224  224    1    2
  0.1357572E+02  0.1537960E-08  0.1537962E-08  0.1395899E-08  0.5000000E-15
  1.000000000000000E-004
  CAR 
 unknown system                          
   1664      8   1208
 
  0.0000000E+00  0.0000000E+00  0.0000000E+00  0.1250000E+00
    1      -51.143916    -46.393014   1.000000   1.000000
    2      -51.143043    -46.392092   1.000000   1.000000
    3      -51.142498    -46.391630   1.000000   1.000000
    4      -51.142259    -46.391409   1.000000   1.000000
    5      -51.141728    -46.391042   1.000000   1.000000
    6      -51.141566    -46.390792   1.000000   1.000000
    7      -51.141449    -46.390724   1.000000   1.000000
    8      -51.141387    -46.390591   1.000000   1.000000
    9      -51.141317    -46.390549   1.000000   1.000000
   10      -51.141292    -46.390418   1.000000   1.000000
   11      -51.141219    -46.390390   1.000000   1.000000
   12      -51.141131    -46.390245   1.000000   1.000000
   13      -51.141067    -46.390193   1.000000   1.000000
   14      -51.141036    -46.390151   1.000000   1.000000
   15      -51.140999    -46.390095   1.000000   1.000000
   16      -51.140978    -46.390048   1.000000   1.000000
   17      -51.140935    -46.390036   1.000000   1.000000
   18      -51.140880    -46.389954   1.000000   1.000000
   19      -51.140837    -46.389891   1.000000   1.000000
   20      -51.140763    -46.389840   1.000000   1.000000
   21      -51.140741    -46.389775   1.000000   1.000000
   22      -51.140726    -46.389734   1.000000   1.000000
   23      -51.140660    -46.389677   1.000000   1.000000
   24      -51.140642    -46.389663   1.000000   1.000000
   25      -51.140614    -46.389646   1.000000   1.000000
   26      -51.140594    -46.389609   1.000000   1.000000
   27      -51.140579    -46.389593   1.000000   1.000000
   28      -51.140566    -46.389581   1.000000   1.000000
   29      -51.140546    -46.389565   1.000000   1.000000
   30      -51.140524    -46.389484   1.000000   1.000000
   31      -51.140470    -46.389398   1.000000   1.000000
   32      -51.140414    -46.389361   1.000000   1.000000
   33      -51.140360    -46.389212   1.000000   1.000000
   34      -51.140308    -46.389147   1.000000   1.000000
   35      -51.140238    -46.389128   1.000000   1.000000
   36      -51.140167    -46.388987   1.000000   1.000000
   37      -51.140151    -46.388957   1.000000   1.000000
   38      -51.140118    -46.388885   1.000000   1.000000
   39      -51.140104    -46.388872   1.000000   1.000000
   40      -51.140084    -46.388866   1.000000   1.000000
   41      -51.140064    -46.388831   1.000000   1.000000
   42      -51.140051    -46.388789   1.000000   1.000000
   43      -51.139959    -46.388720   1.000000   1.000000
   44      -51.139950    -46.388709   1.000000   1.000000
   45      -51.139921    -46.388665   1.000000   1.000000
   46      -51.139910    -46.388658   1.000000   1.000000
   47      -51.139867    -46.388608   1.000000   1.000000
   48      -51.139854    -46.388598   1.000000   1.000000
   49      -51.139822    -46.388546   1.000000   1.000000
   50      -51.139780    -46.388529   1.000000   1.000000
   51      -51.139757    -46.388475   1.000000   1.000000
   52      -51.139736    -46.388465   1.000000   1.000000
   53      -51.139720    -46.388386   1.000000   1.000000
   54      -51.139626    -46.388337   1.000000   1.000000
   55      -51.139601    -46.388293   1.000000   1.000000
   56      -51.139477    -46.388140   1.000000   1.000000
   57      -51.139473    -46.388071   1.000000   1.000000
   58      -51.139398    -46.388028   1.000000   1.000000
   59      -51.139382    -46.387933   1.000000   1.000000
   60      -51.139244    -46.387849   1.000000   1.000000
   61      -51.139146    -46.387741   1.000000   1.000000
   62      -51.139074    -46.387701   1.000000   1.000000
   63      -51.138974    -46.387458   1.000000   1.000000
   64      -51.133447    -46.382824   1.000000   1.000000
   65      -49.649906    -45.930888   1.000000   1.000000
   66      -49.649293    -45.930760   1.000000   1.000000
   67      -49.648685    -45.930389   1.000000   1.000000
   68      -49.648516    -45.929979   1.000000   1.000000
   69      -49.648336    -45.929712   1.000000   1.000000
   70      -49.648010    -45.929597   1.000000   1.000000
   71      -49.647862    -45.929461   1.000000   1.000000
   72      -49.647716    -45.929218   1.000000   1.000000
   73      -49.647643    -45.929166   1.000000   1.000000
   74      -49.647627    -45.929066   1.000000   1.000000
   75      -49.647503    -45.929052   1.000000   1.000000
   76      -49.647434    -45.929015   1.000000   1.000000
   77      -49.647416    -45.928898   1.000000   1.000000
   78      -49.647398    -45.928828   1.000000   1.000000
   79      -49.647380    -45.928773   1.000000   1.000000
   80      -49.647366    -45.928739   1.000000   1.000000
   81      -49.647328    -45.928709   1.000000   1.000000
   82      -49.647272    -45.928682   1.000000   1.000000
   83      -49.647228    -45.928652   1.000000   1.000000
   84      -49.647208    -45.928597   1.000000   1.000000
   85      -49.647169    -45.928566   1.000000   1.000000
   86      -49.647163    -45.928526   1.000000   1.000000
   87      -49.647137    -45.928521   1.000000   1.000000
   88      -49.647133    -45.928486   1.000000   1.000000
   89      -49.647098    -45.928467   1.000000   1.000000
   90      -49.647010    -45.928440   1.000000   1.000000
   91      -49.646954    -45.928434   1.000000   1.000000
   92      -49.646953    -45.928384   1.000000   1.000000
   93      -49.646894    -45.928328   1.000000   1.000000
   94      -49.646889    -45.928286   1.000000   1.000000
   95      -49.646883    -45.928264   1.000000   1.000000
   96      -49.646860    -45.928257   1.000000   1.000000
   97      -49.646828    -45.928232   1.000000   1.000000
   98      -49.646767    -45.928214   1.000000   1.000000
   99      -49.646733    -45.928123   1.000000   1.000000
  100      -49.646710    -45.928104   1.000000   1.000000
  101      -49.646617    -45.928088   1.000000   1.000000
  102      -49.646599    -45.928030   1.000000   1.000000
  103      -49.646576    -45.928002   1.000000   1.000000
  104      -49.646546    -45.927975   1.000000   1.000000
  105      -49.646499    -45.927958   1.000000   1.000000
  106      -49.646497    -45.927952   1.000000   1.000000
  107      -49.646440    -45.927906   1.000000   1.000000
  108      -49.646437    -45.927888   1.000000   1.000000
  109      -49.646353    -45.927841   1.000000   1.000000
  110      -49.646348    -45.927810   1.000000   1.000000
  111      -49.646333    -45.927778   1.000000   1.000000
  112      -49.646291    -45.927758   1.000000   1.000000
  113      -49.646179    -45.927682   1.000000   1.000000
  114      -49.646128    -45.927644   1.000000   1.000000
  115      -49.646084    -45.927621   1.000000   1.000000
  116      -49.646073    -45.927606   1.000000   1.000000
  117      -49.646042    -45.927545   1.000000   1.000000
  118      -49.645968    -45.927502   1.000000   1.000000
  119      -49.645927    -45.927423   1.000000   1.000000
  120      -49.645902    -45.927372   1.000000   1.000000
  121      -49.645892    -45.927347   1.000000   1.000000
  122      -49.645832    -45.927339   1.000000   1.000000
  123      -49.645788    -45.927297   1.000000   1.000000
  124      -49.645744    -45.927286   1.000000   1.000000
  125      -49.645698    -45.927261   1.000000   1.000000
  126      -49.645660    -45.927253   1.000000   1.000000
  127      -49.645648    -45.927244   1.000000   1.000000
  128      -49.645631    -45.927206   1.000000   1.000000
  129      -49.645606    -45.927191   1.000000   1.000000
  130      -49.645559    -45.927185   1.000000   1.000000
  131      -49.645540    -45.927163   1.000000   1.000000
  132      -49.645511    -45.927123   1.000000   1.000000
  133      -49.645491    -45.927082   1.000000   1.000000
  134      -49.645485    -45.927032   1.000000   1.000000
  135      -49.645453    -45.926995   1.000000   1.000000
  136      -49.645442    -45.926988   1.000000   1.000000
  137      -49.645373    -45.926975   1.000000   1.000000
  138      -49.645342    -45.926949   1.000000   1.000000
  139      -49.645340    -45.926924   1.000000   1.000000
  140      -49.645312    -45.926890   1.000000   1.000000
  141      -49.645261    -45.926856   1.000000   1.000000
  142      -49.645247    -45.926841   1.000000   1.000000
  143      -49.645205    -45.926802   1.000000   1.000000
  144      -49.645187    -45.926784   1.000000   1.000000
  145      -49.645180    -45.926769   1.000000   1.000000
  146      -49.645118    -45.926737   1.000000   1.000000
  147      -49.645102    -45.926735   1.000000   1.000000
  148      -49.645063    -45.926721   1.000000   1.000000
  149      -49.645056    -45.926686   1.000000   1.000000
  150      -49.645021    -45.926671   1.000000   1.000000
  151      -49.645010    -45.926654   1.000000   1.000000
  152      -49.644995    -45.926614   1.000000   1.000000
  153      -49.644970    -45.926591   1.000000   1.000000
  154      -49.644888    -45.926561   1.000000   1.000000
  155      -49.644882    -45.926547   1.000000   1.000000
  156      -49.644803    -45.926501   1.000000   1.000000
  157      -49.644788    -45.926494   1.000000   1.000000
  158      -49.644784    -45.926456   1.000000   1.000000
  159      -49.644768    -45.926432   1.000000   1.000000
  160      -49.644695    -45.926392   1.000000   1.000000
  161      -49.644680    -45.926374   1.000000   1.000000
  162      -49.644646    -45.926355   1.000000   1.000000
  163      -49.644609    -45.926333   1.000000   1.000000
  164      -49.644579    -45.926283   1.000000   1.000000
  165      -49.644558    -45.926275   1.000000   1.000000
  166      -49.644524    -45.926262   1.000000   1.000000
  167      -49.644499    -45.926226   1.000000   1.000000
  168      -49.644413    -45.926211   1.000000   1.000000
  169      -49.644379    -45.926167   1.000000   1.000000
  170      -49.644314    -45.926122   1.000000   1.000000
  171      -49.644303    -45.926095   1.000000   1.000000
  172      -49.644288    -45.926045   1.000000   1.000000
  173      -49.644278    -45.926038   1.000000   1.000000
  174      -49.644175    -45.926002   1.000000   1.000000
  175      -49.644152    -45.925958   1.000000   1.000000
  176      -49.644114    -45.925942   1.000000   1.000000
  177      -49.644070    -45.925914   1.000000   1.000000
  178      -49.644028    -45.925904   1.000000   1.000000
  179      -49.643993    -45.925853   1.000000   1.000000
  180      -49.643948    -45.925819   1.000000   1.000000
  181      -49.643833    -45.925800   1.000000   1.000000
  182      -49.643824    -45.925785   1.000000   1.000000
  183      -49.643812    -45.925694   1.000000   1.000000
  184      -49.643721    -45.925556   1.000000   1.000000
  185      -49.643646    -45.925483   1.000000   1.000000
  186      -49.643612    -45.925447   1.000000   1.000000
  187      -49.643530    -45.925412   1.000000   1.000000
  188      -49.643254    -45.925334   1.000000   1.000000
  189      -49.643189    -45.925284   1.000000   1.000000
  190      -49.643032    -45.925205   1.000000   1.000000
  191      -49.640801    -45.921541   1.000000   1.000000
  192      -49.638464    -45.921230   1.000000   1.000000
  193      -39.641628    -39.640709   1.000000   1.000000
  194      -39.640426    -39.639510   1.000000   1.000000
  195      -39.634518    -39.633642   1.000000   1.000000
  196      -39.633878    -39.633005   1.000000   1.000000
  197      -39.633742    -39.632869   1.000000   1.000000
  198      -39.633551    -39.632678   1.000000   1.000000
  199      -39.633246    -39.632373   1.000000   1.000000
  200      -39.633054    -39.632181   1.000000   1.000000
  201      -39.632991    -39.632118   1.000000   1.000000
  202      -39.631601    -39.630732   1.000000   1.000000
  203      -39.628376    -39.627537   1.000000   1.000000
  204      -39.628343    -39.627503   1.000000   1.000000
  205      -39.628178    -39.627340   1.000000   1.000000
  206      -39.628004    -39.627166   1.000000   1.000000
  207      -39.627677    -39.626838   1.000000   1.000000
  208      -39.627021    -39.626183   1.000000   1.000000
  209      -39.626968    -39.626130   1.000000   1.000000
  210      -39.625457    -39.624615   1.000000   1.000000
  211      -39.617186    -39.616406   1.000000   1.000000
  212      -39.616816    -39.616038   1.000000   1.000000
  213      -39.616622    -39.615845   1.000000   1.000000
  214      -39.616518    -39.615743   1.000000   1.000000
  215      -39.615864    -39.615088   1.000000   1.000000
  216      -39.615806    -39.615031   1.000000   1.000000
  217      -39.615769    -39.614995   1.000000   1.000000
  218      -39.615643    -39.614868   1.000000   1.000000
  219      -39.615487    -39.614719   1.000000   1.000000
  220      -39.615416    -39.614647   1.000000   1.000000
  221      -39.615339    -39.614563   1.000000   1.000000
  222      -39.615271    -39.614502   1.000000   1.000000
  223      -39.615268    -39.614493   1.000000   1.000000
  224      -39.615188    -39.614419   1.000000   1.000000
  225      -39.615159    -39.614391   1.000000   1.000000
  226      -39.615141    -39.614373   1.000000   1.000000
  227      -39.615108    -39.614340   1.000000   1.000000
  228      -39.615093    -39.614324   1.000000   1.000000
  229      -39.614897    -39.614127   1.000000   1.000000
  230      -39.614774    -39.614005   1.000000   1.000000
  231      -39.614567    -39.613807   1.000000   1.000000
  232      -39.614522    -39.613762   1.000000   1.000000
  233      -39.614467    -39.613707   1.000000   1.000000
  234      -39.614432    -39.613671   1.000000   1.000000
  235      -39.613815    -39.613043   1.000000   1.000000
  236      -39.612829    -39.612051   1.000000   1.000000
  237      -39.610914    -39.610146   1.000000   1.000000
  238      -39.610773    -39.610004   1.000000   1.000000
  239      -39.604658    -39.603936   1.000000   1.000000
  240      -39.604369    -39.603648   1.000000   1.000000
  241      -39.604198    -39.603478   1.000000   1.000000
  242      -39.604052    -39.603332   1.000000   1.000000
  243      -39.603712    -39.602991   1.000000   1.000000
  244      -39.602758    -39.602039   1.000000   1.000000
  245      -39.602612    -39.601890   1.000000   1.000000
  246      -39.602563    -39.601841   1.000000   1.000000
  247      -39.600441    -39.599732   1.000000   1.000000
  248      -39.599938    -39.599232   1.000000   1.000000
  249      -39.599821    -39.599115   1.000000   1.000000
  250      -39.599705    -39.598999   1.000000   1.000000
  251      -39.599353    -39.598647   1.000000   1.000000
  252      -39.598642    -39.597932   1.000000   1.000000
  253      -39.598555    -39.597843   1.000000   1.000000
  254      -39.596688    -39.595981   1.000000   1.000000
  255      -39.593685    -39.593001   1.000000   1.000000
  256      -39.591275    -39.590581   1.000000   1.000000
  257      -12.747643    -12.468178   1.000000   1.000000
  258      -12.745901    -12.466474   1.000000   1.000000
  259      -12.720107    -12.440356   1.000000   1.000000
  260      -12.719833    -12.440081   1.000000   1.000000
  261      -12.719719    -12.439977   1.000000   1.000000
  262      -12.719412    -12.439669   1.000000   1.000000
  263      -12.719226    -12.439464   1.000000   1.000000
  264      -12.719185    -12.439417   1.000000   1.000000
  265      -12.719054    -12.439290   1.000000   1.000000
  266      -12.714702    -12.435149   1.000000   1.000000
  267      -12.697275    -12.417108   1.000000   1.000000
  268      -12.696952    -12.416863   1.000000   1.000000
  269      -12.695219    -12.415614   1.000000   1.000000
  270      -12.695180    -12.415577   1.000000   1.000000
  271      -12.694428    -12.414807   1.000000   1.000000
  272      -12.693724    -12.414262   1.000000   1.000000
  273      -12.692468    -12.413353   1.000000   1.000000
  274      -12.692049    -12.412534   1.000000   1.000000
  275      -12.691670    -12.411644   1.000000   1.000000
  276      -12.691578    -12.411597   1.000000   1.000000
  277      -12.690913    -12.410870   1.000000   1.000000
  278      -12.684759    -12.405387   1.000000   1.000000
  279      -12.672909    -12.392907   1.000000   1.000000
  280      -12.672793    -12.392781   1.000000   1.000000
  281      -12.672671    -12.392655   1.000000   1.000000
  282      -12.671059    -12.391505   1.000000   1.000000
  283      -12.667781    -12.388877   1.000000   1.000000
  284      -12.667672    -12.388766   1.000000   1.000000
  285      -12.667598    -12.388706   1.000000   1.000000
  286      -12.659985    -12.381252   1.000000   1.000000
  287      -12.651922    -12.372702   1.000000   1.000000
  288      -12.641226    -12.363735   1.000000   1.000000
  289       -7.800257     -7.599243   1.000000   1.000000
  290       -7.748439     -7.551708   1.000000   1.000000
  291       -7.506801     -7.320210   1.000000   1.000000
  292       -7.505417     -7.319158   1.000000   1.000000
  293       -7.505341     -7.319070   1.000000   1.000000
  294       -7.505282     -7.319009   1.000000   1.000000
  295       -7.501500     -7.309561   1.000000   1.000000
  296       -7.500986     -7.308845   1.000000   1.000000
  297       -7.500874     -7.308745   1.000000   1.000000
  298       -7.500766     -7.308648   1.000000   1.000000
  299       -7.315633     -7.118129   1.000000   1.000000
  300       -7.315164     -7.117706   1.000000   1.000000
  301       -7.298010     -7.094651   1.000000   1.000000
  302       -7.297161     -7.093872   1.000000   1.000000
  303       -7.296477     -7.093205   1.000000   1.000000
  304       -7.296477     -7.093193   1.000000   1.000000
  305       -7.269643     -7.062317   1.000000   1.000000
  306       -7.269250     -7.061947   1.000000   1.000000
  307       -7.088944     -6.894898   1.000000   1.000000
  308       -7.085730     -6.894092   1.000000   1.000000
  309       -7.084898     -6.893584   1.000000   1.000000
  310       -7.084400     -6.893572   1.000000   1.000000
  311       -7.084370     -6.796923   1.000000   1.000000
  312       -7.046776     -6.783992   1.000000   1.000000
  313       -7.002547     -6.770060   1.000000   1.000000
  314       -7.000026     -6.768166   1.000000   1.000000
  315       -6.999998     -6.767852   1.000000   1.000000
  316       -6.999863     -6.767687   1.000000   1.000000
  317       -6.999821     -6.767276   1.000000   1.000000
  318       -6.999723     -6.766292   1.000000   1.000000
  319       -6.999489     -6.766180   1.000000   1.000000
  320       -6.998882     -6.766123   1.000000   1.000000
  321       -6.994826     -6.766116   1.000000   1.000000
  322       -6.994225     -6.766035   1.000000   1.000000
  323       -6.994115     -6.765770   1.000000   1.000000
  324       -6.993950     -6.765142   1.000000   1.000000
  325       -6.956956     -6.745609   1.000000   1.000000
  326       -6.956005     -6.744927   1.000000   1.000000
  327       -6.955542     -6.744816   1.000000   1.000000
  328       -6.955515     -6.744692   1.000000   1.000000
  329       -6.948677     -6.697883   1.000000   1.000000
  330       -6.948319     -6.697449   1.000000   1.000000
  331       -6.929438     -6.689758   1.000000   1.000000
  332       -6.928662     -6.689116   1.000000   1.000000
  333       -6.928556     -6.689004   1.000000   1.000000
  334       -6.928516     -6.688949   1.000000   1.000000
  335       -6.911981     -6.641945   1.000000   1.000000
  336       -6.911049     -6.639488   1.000000   1.000000
  337       -6.886984     -6.639242   1.000000   1.000000
  338       -6.885964     -6.639116   1.000000   1.000000
  339       -6.885329     -6.639114   1.000000   1.000000
  340       -6.885307     -6.638978   1.000000   1.000000
  341       -6.878785     -6.638790   1.000000   1.000000
  342       -6.877039     -6.638750   1.000000   1.000000
  343       -6.877015     -6.638638   1.000000   1.000000
  344       -6.876904     -6.638190   1.000000   1.000000
  345       -6.876846     -6.638014   1.000000   1.000000
  346       -6.876770     -6.637681   1.000000   1.000000
  347       -6.876549     -6.628588   1.000000   1.000000
  348       -6.875866     -6.627763   1.000000   1.000000
  349       -6.832949     -6.586942   1.000000   1.000000
  350       -6.832601     -6.586630   1.000000   1.000000
  351       -6.794902     -6.499703   1.000000   1.000000
  352       -6.794012     -6.498831   1.000000   1.000000
  353       -1.525121     -0.414894   1.000000   1.000000
  354       -1.467773     -0.414776   1.000000   1.000000
  355       -1.467739     -0.414328   1.000000   1.000000
  356       -1.467654     -0.413349   1.000000   1.000000
  357       -1.466281      0.026143   1.000000   1.000000
  358       -1.460448      0.026241   1.000000   1.000000
  359       -1.460311      0.026354   1.000000   1.000000
  360       -1.460191      0.027674   1.000000   1.000000
  361       -1.458231      0.037435   1.000000   1.000000
  362       -1.421449      0.037565   1.000000   1.000000
  363       -1.420369      0.037698   1.000000   1.000000
  364       -1.383048      0.037968   1.000000   1.000000
  365       -1.382950      0.038100   1.000000   1.000000
  366       -1.382667      0.038220   1.000000   1.000000
  367       -1.380662      0.038414   1.000000   1.000000
  368       -1.332998      0.041510   1.000000   1.000000
  369       -1.332841      0.102808   1.000000   1.000000
  370       -1.332623      0.103864   1.000000   1.000000
  371       -1.332504      0.207206   1.000000   1.000000
  372       -1.332478      0.207242   1.000000   1.000000
  373       -1.332436      0.207744   1.000000   1.000000
  374       -1.332317      0.209574   1.000000   1.000000
  375       -1.327904      0.304676   1.000000   1.000000
  376       -1.292587      0.392348   1.000000   1.000000
  377       -1.292555      0.392506   1.000000   1.000000
  378       -1.292468      0.392597   1.000000   1.000000
  379       -1.289898      0.394887   1.000000   1.000000
  380       -1.257078      0.490796   1.000000   1.000000
  381       -1.255255      0.492103   1.000000   1.000000
  382       -1.232266      0.497061   1.000000   1.000000
  383       -1.230767      0.497620   1.000000   1.000000
  384       -1.219591      0.498143   1.000000   1.000000
  385       -0.822829      0.498195   1.000000   1.000000
  386       -0.822748      0.510754   1.000000   1.000000
  387       -0.822705      0.510788   1.000000   1.000000
  388       -0.822147      0.530756   1.000000   1.000000
  389       -0.722876      0.530850   1.000000   1.000000
  390       -0.722275      0.531383   1.000000   1.000000
  391       -0.699315      0.531486   1.000000   1.000000
  392       -0.699127      0.573617   1.000000   1.000000
  393       -0.698766      0.573665   1.000000   1.000000
  394       -0.698428      0.574241   1.000000   1.000000
  395       -0.688874      0.574279   1.000000   1.000000
  396       -0.688604      0.574413   1.000000   1.000000
  397       -0.688314      0.574493   1.000000   1.000000
  398       -0.687980      0.575180   1.000000   1.000000
  399       -0.666818      0.575323   1.000000   1.000000
  400       -0.666473      0.639202   1.000000   1.000000
  401       -0.666285      0.666045   1.000000   1.000000
  402       -0.666046      0.666598   1.000000   1.000000
  403       -0.651983      0.732697   1.000000   1.000000
  404       -0.651950      0.734961   1.000000   1.000000
  405       -0.651710      0.931684   1.000000   1.000000
  406       -0.651314      0.932705   1.000000   1.000000
  407       -0.589631      0.935575   1.000000   1.000000
  408       -0.589008      0.936174   1.000000   1.000000
  409       -0.576761      0.948780   1.000000   1.000000
  410       -0.576720      0.948868   1.000000   1.000000
  411       -0.576376      0.949286   1.000000   1.000000
  412       -0.575896      0.949730   1.000000   1.000000
  413       -0.553589      0.985792   1.000000   1.000000
  414       -0.553161      0.985908   1.000000   1.000000
  415       -0.552864      0.986469   1.000000   1.000000
  416       -0.552542      0.987449   1.000000   1.000000
  417       -0.497431      0.992612   1.000000   1.000000
  418       -0.496679      0.992807   1.000000   1.000000
  419       -0.472705      1.008760   1.000000   1.000000
  420       -0.472479      1.008976   1.000000   1.000000
  421       -0.461719      1.009696   1.000000   1.000000
  422       -0.461474      1.009703   1.000000   1.000000
  423       -0.461348      1.018299   1.000000   1.000000
  424       -0.460964      1.048794   1.000000   1.000000
  425       -0.459872      1.049228   1.000000   1.000000
  426       -0.459500      1.051491   1.000000   1.000000
  427       -0.459226      1.051642   1.000000   1.000000
  428       -0.458789      1.052085   1.000000   1.000000
  429       -0.410118      1.053146   1.000000   1.000000
  430       -0.409692      1.078503   1.000000   1.000000
  431       -0.407917      1.078730   1.000000   1.000000
  432       -0.407698      1.078935   1.000000   1.000000
  433       -0.407453      1.079470   1.000000   1.000000
  434       -0.407366      1.079566   1.000000   1.000000
  435       -0.407003      1.079653   1.000000   1.000000
  436       -0.406061      1.080167   1.000000   1.000000
  437       -0.383395      1.081589   1.000000   1.000000
  438       -0.383173      1.192856   1.000000   1.000000
  439       -0.378298      1.193716   1.000000   1.000000
  440       -0.369224      1.376926   1.000000   1.000000
  441       -0.369154      1.390842   1.000000   1.000000
  442       -0.368913      1.391022   1.000000   1.000000
  443       -0.368813      1.391200   1.000000   1.000000
  444       -0.368730      1.391248   1.000000   1.000000
  445       -0.368691      1.391492   1.000000   1.000000
  446       -0.368414      1.437790   1.000000   1.000000
  447       -0.368382      1.450695   1.000000   1.000000
  448       -0.353801      1.526222   1.000000   1.000000
  449       -0.353618      1.526276   1.000000   1.000000
  450       -0.348844      1.526685   1.000000   1.000000
  451       -0.341588      1.526918   1.000000   1.000000
  452       -0.336048      1.528874   1.000000   1.000000
  453       -0.335627      1.528887   1.000000   1.000000
  454       -0.335430      1.530749   1.000000   1.000000
  455       -0.334958      1.530940   1.000000   1.000000
  456       -0.334473      1.557732   1.000000   1.000000
  457       -0.334347      1.558073   1.000000   1.000000
  458       -0.334011      1.558502   1.000000   1.000000
  459       -0.333844      1.559035   1.000000   1.000000
  460       -0.324321      1.566346   1.000000   1.000000
  461       -0.324010      1.566738   1.000000   1.000000
  462       -0.323923      1.566861   1.000000   1.000000
  463       -0.323536      1.567119   1.000000   1.000000
  464       -0.321715      1.567977   1.000000   1.000000
  465       -0.321246      1.568381   1.000000   1.000000
  466       -0.320876      1.568448   1.000000   1.000000
  467       -0.320385      1.571440   1.000000   1.000000
  468       -0.303513      1.586338   1.000000   1.000000
  469       -0.295596      1.586580   1.000000   1.000000
  470       -0.288323      1.695552   1.000000   1.000000
  471       -0.287972      1.695723   1.000000   1.000000
  472       -0.287850      1.740678   1.000000   1.000000
  473       -0.287823      1.741058   1.000000   1.000000
  474       -0.280635      1.741190   1.000000   1.000000
  475       -0.280397      1.741533   1.000000   1.000000
  476       -0.275501      1.746404   1.000000   1.000000
  477       -0.275043      1.746467   1.000000   1.000000
  478       -0.275014      1.748678   1.000000   1.000000
  479       -0.274764      1.748694   1.000000   1.000000
  480       -0.242105      1.779036   1.000000   1.000000
  481       -0.241874      1.780644   1.000000   1.000000
  482       -0.241813      1.780902   1.000000   1.000000
  483       -0.241635      1.836529   1.000000   1.000000
  484       -0.241470      1.836950   1.000000   1.000000
  485       -0.241389      1.837066   1.000000   1.000000
  486       -0.241305      1.837510   1.000000   1.000000
  487       -0.241233      1.837624   1.000000   1.000000
  488       -0.207518      1.838168   1.000000   1.000000
  489       -0.207514      1.838316   1.000000   1.000000
  490       -0.200191      1.840901   1.000000   1.000000
  491       -0.199730      1.865555   1.000000   1.000000
  492       -0.199506      1.866585   1.000000   1.000000
  493       -0.199449      1.913226   1.000000   1.000000
  494       -0.194137      1.913258   1.000000   1.000000
  495       -0.194091      1.913354   1.000000   1.000000
  496       -0.164176      1.913489   1.000000   1.000000
  497       -0.163974      1.913519   1.000000   1.000000
  498       -0.163934      1.913646   1.000000   1.000000
  499       -0.163703      1.915041   1.000000   1.000000
  500       -0.156919      1.915631   1.000000   1.000000
  501       -0.156711      1.926758   1.000000   1.000000
  502       -0.156416      1.926906   1.000000   1.000000
  503       -0.156240      1.927231   1.000000   1.000000
  504       -0.139348      1.927353   1.000000   1.000000
  505       -0.139142      2.133338   1.000000   1.000000
  506       -0.138998      2.133499   1.000000   1.000000
  507       -0.138762      2.191165   1.000000   1.000000
  508       -0.091084      2.193093   1.000000   1.000000
  509       -0.091055      2.300738   1.000000   1.000000
  510       -0.082401      2.300746   1.000000   1.000000
  511       -0.082339      2.301026   1.000000   1.000000
  512       -0.082191      2.301424   1.000000   1.000000