  88  88   0   0
  0.1431748E+02  0.1111223E-08  0.1111745E-08  0.1056954E-08  0.5000000E-15
  1.000000000000000E-004
  CAR 
 unknown system                          
     17.91195692    -54.34618938  301      5.20656620      1.00000000
    -54.346  0.0000E+00  0.0000E+00  0.0000E+00  0.0000E+00
    -54.105  0.0000E+00  0.0000E+00  0.0000E+00  0.0000E+00
    -53.864  0.0000E+00  0.0000E+00  0.0000E+00  0.0000E+00
    -53.624  0.0000E+00  0.0000E+00  0.0000E+00  0.0000E+00
    -53.383  0.0000E+00  0.0000E+00  0.0000E+00  0.0000E+00
    -53.142  0.0000E+00  0.0000E+00  0.0000E+00  0.0000E+00
    -52.901  0.0000E+00  0.0000E+00  0.0000E+00  0.0000E+00
    -52.660  0.0000E+00  0.0000E+00  0.0000E+00  0.0000E+00
    -52.419  0.0000E+00  0.0000E+00  0.0000E+00  0.0000E+00
    -52.178  0.0000E+00  0.0000E+00  0.0000E+00  0.0000E+00
    -51.938  0.0000E+00  0.0000E+00  0.0000E+00  0.0000E+00
    -51.697  0.0000E+00  0.0000E+00  0.0000E+00  0.0000E+00
    -51.456  0.0000E+00  0.0000E+00  0.0000E+00  0.0000E+00
    -51.215  0.2127E-03  0.0000E+00  0.5122E-04  0.0000E+00
    -50.974  0.1300E+03  0.0000E+00  0.3132E+02  0.0000E+00
    -50.733  0.2829E+01  0.0000E+00  0.3200E+02  0.0000E+00
    -50.492  0.0000E+00  0.0000E+00  0.3200E+02  0.0000E+00
    -50.252  0.0000E+00  0.0000E+00  0.3200E+02  0.0000E+00
    -50.011  0.0000E+00  0.0000E+00  0.3200E+02  0.0000E+00
    -49.770  0.1496E+01  0.0000E+00  0.3236E+02  0.0000E+00
    -49.529  0.2314E+03  0.0000E+00  0.8810E+02  0.0000E+00
    -49.288  0.3282E+02  0.0000E+00  0.9600E+02  0.0000E+00
    -49.047  0.0000E+00  0.0000E+00  0.9600E+02  0.0000E+00
    -48.806  0.0000E+00  0.0000E+00  0.9600E+02  0.0000E+00
    -48.566  0.0000E+00  0.0000E+00  0.9600E+02  0.0000E+00
    -48.325  0.0000E+00  0.0000E+00  0.9600E+02  0.0000E+00
    -48.084  0.0000E+00  0.0000E+00  0.9600E+02  0.0000E+00
    -47.843  0.0000E+00  0.0000E+00  0.9600E+02  0.0000E+00
    -47.602  0.0000E+00  0.0000E+00  0.9600E+02  0.0000E+00
    -47.361  0.0000E+00  0.0000E+00  0.9600E+02  0.0000E+00
    -47.120  0.0000E+00  0.0000E+00  0.9600E+02  0.0000E+00
    -46.880  0.0000E+00  0.0000E+00  0.9600E+02  0.0000E+00
    -46.639  0.0000E+00  0.0000E+00  0.9600E+02  0.0000E+00
    -46.398  0.0000E+00  0.2625E+00  0.9600E+02  0.6322E-01
    -46.157  0.0000E+00  0.1325E+03  0.9600E+02  0.3198E+02
    -45.916  0.0000E+00  0.5506E+02  0.9600E+02  0.4524E+02
    -45.675  0.0000E+00  0.2107E+03  0.9600E+02  0.9600E+02
    -45.434  0.0000E+00  0.4954E-04  0.9600E+02  0.9600E+02
    -45.193  0.0000E+00  0.0000E+00  0.9600E+02  0.9600E+02
    -44.953  0.0000E+00  0.0000E+00  0.9600E+02  0.9600E+02
    -44.712  0.0000E+00  0.0000E+00  0.9600E+02  0.9600E+02
    -44.471  0.0000E+00  0.0000E+00  0.9600E+02  0.9600E+02
    -44.230  0.0000E+00  0.0000E+00  0.9600E+02  0.9600E+02
    -43.989  0.0000E+00  0.0000E+00  0.9600E+02  0.9600E+02
    -43.748  0.0000E+00  0.0000E+00  0.9600E+02  0.9600E+02
    -43.507  0.0000E+00  0.0000E+00  0.9600E+02  0.9600E+02
    -43.267  0.0000E+00  0.0000E+00  0.9600E+02  0.9600E+02
    -43.026  0.0000E+00  0.0000E+00  0.9600E+02  0.9600E+02
    -42.785  0.0000E+00  0.0000E+00  0.9600E+02  0.9600E+02
    -42.544  0.0000E+00  0.0000E+00  0.9600E+02  0.9600E+02
    -42.303  0.0000E+00  0.0000E+00  0.9600E+02  0.9600E+02
    -42.062  0.0000E+00  0.0000E+00  0.9600E+02  0.9600E+02
    -41.821  0.0000E+00  0.0000E+00  0.9600E+02  0.9600E+02
    -41.581  0.0000E+00  0.0000E+00  0.9600E+02  0.9600E+02
    -41.340  0.0000E+00  0.0000E+00  0.9600E+02  0.9600E+02
    -41.099  0.0000E+00  0.0000E+00  0.9600E+02  0.9600E+02
    -40.858  0.0000E+00  0.0000E+00  0.9600E+02  0.9600E+02
    -40.617  0.0000E+00  0.0000E+00  0.9600E+02  0.9600E+02
    -40.376  0.0000E+00  0.0000E+00  0.9600E+02  0.9600E+02
    -40.135  0.1075E-11  0.7051E-12  0.9600E+02  0.9600E+02
    -39.895  0.1332E+02  0.1227E+02  0.9921E+02  0.9895E+02
    -39.654  0.5311E+02  0.5416E+02  0.1120E+03  0.1120E+03
    -39.413  0.0000E+00  0.0000E+00  0.1120E+03  0.1120E+03
    -39.172  0.0000E+00  0.0000E+00  0.1120E+03  0.1120E+03
    -38.931  0.0000E+00  0.0000E+00  0.1120E+03  0.1120E+03
    -38.690  0.0000E+00  0.0000E+00  0.1120E+03  0.1120E+03
    -38.449  0.0000E+00  0.0000E+00  0.1120E+03  0.1120E+03
    -38.209  0.0000E+00  0.0000E+00  0.1120E+03  0.1120E+03
    -37.968  0.0000E+00  0.0000E+00  0.1120E+03  0.1120E+03
    -37.727  0.0000E+00  0.0000E+00  0.1120E+03  0.1120E+03
    -37.486  0.0000E+00  0.0000E+00  0.1120E+03  0.1120E+03
    -37.245  0.0000E+00  0.0000E+00  0.1120E+03  0.1120E+03
    -37.004  0.0000E+00  0.0000E+00  0.1120E+03  0.1120E+03
    -36.763  0.0000E+00  0.0000E+00  0.1120E+03  0.1120E+03
    -36.523  0.0000E+00  0.0000E+00  0.1120E+03  0.1120E+03
    -36.282  0.0000E+00  0.0000E+00  0.1120E+03  0.1120E+03
    -36.041  0.0000E+00  0.0000E+00  0.1120E+03  0.1120E+03
    -35.800  0.0000E+00  0.0000E+00  0.1120E+03  0.1120E+03
    -35.559  0.0000E+00  0.0000E+00  0.1120E+03  0.1120E+03
    -35.318  0.0000E+00  0.0000E+00  0.1120E+03  0.1120E+03
    -35.077  0.0000E+00  0.0000E+00  0.1120E+03  0.1120E+03
    -34.836  0.0000E+00  0.0000E+00  0.1120E+03  0.1120E+03
    -34.596  0.0000E+00  0.0000E+00  0.1120E+03  0.1120E+03
    -34.355  0.0000E+00  0.0000E+00  0.1120E+03  0.1120E+03
    -34.114  0.0000E+00  0.0000E+00  0.1120E+03  0.1120E+03
    -33.873  0.0000E+00  0.0000E+00  0.1120E+03  0.1120E+03
    -33.632  0.0000E+00  0.0000E+00  0.1120E+03  0.1120E+03
    -33.391  0.0000E+00  0.0000E+00  0.1120E+03  0.1120E+03
    -33.150  0.0000E+00  0.0000E+00  0.1120E+03  0.1120E+03
    -32.910  0.0000E+00  0.0000E+00  0.1120E+03  0.1120E+03
    -32.669  0.0000E+00  0.0000E+00  0.1120E+03  0.1120E+03
    -32.428  0.0000E+00  0.0000E+00  0.1120E+03  0.1120E+03
    -32.187  0.0000E+00  0.0000E+00  0.1120E+03  0.1120E+03
    -31.946  0.0000E+00  0.0000E+00  0.1120E+03  0.1120E+03
    -31.705  0.0000E+00  0.0000E+00  0.1120E+03  0.1120E+03
    -31.464  0.0000E+00  0.0000E+00  0.1120E+03  0.1120E+03
    -31.224  0.0000E+00  0.0000E+00  0.1120E+03  0.1120E+03
    -30.983  0.0000E+00  0.0000E+00  0.1120E+03  0.1120E+03
    -30.742  0.0000E+00  0.0000E+00  0.1120E+03  0.1120E+03
    -30.501  0.0000E+00  0.0000E+00  0.1120E+03  0.1120E+03
    -30.260  0.0000E+00  0.0000E+00  0.1120E+03  0.1120E+03
    -30.019  0.0000E+00  0.0000E+00  0.1120E+03  0.1120E+03
    -29.778  0.0000E+00  0.0000E+00  0.1120E+03  0.1120E+03
    -29.538  0.0000E+00  0.0000E+00  0.1120E+03  0.1120E+03
    -29.297  0.0000E+00  0.0000E+00  0.1120E+03  0.1120E+03
    -29.056  0.0000E+00  0.0000E+00  0.1120E+03  0.1120E+03
    -28.815  0.0000E+00  0.0000E+00  0.1120E+03  0.1120E+03
    -28.574  0.0000E+00  0.0000E+00  0.1120E+03  0.1120E+03
    -28.333  0.0000E+00  0.0000E+00  0.1120E+03  0.1120E+03
    -28.092  0.0000E+00  0.0000E+00  0.1120E+03  0.1120E+03
    -27.852  0.0000E+00  0.0000E+00  0.1120E+03  0.1120E+03
    -27.611  0.0000E+00  0.0000E+00  0.1120E+03  0.1120E+03
    -27.370  0.0000E+00  0.0000E+00  0.1120E+03  0.1120E+03
    -27.129  0.0000E+00  0.0000E+00  0.1120E+03  0.1120E+03
    -26.888  0.0000E+00  0.0000E+00  0.1120E+03  0.1120E+03
    -26.647  0.0000E+00  0.0000E+00  0.1120E+03  0.1120E+03
    -26.406  0.0000E+00  0.0000E+00  0.1120E+03  0.1120E+03
    -26.166  0.0000E+00  0.0000E+00  0.1120E+03  0.1120E+03
    -25.925  0.0000E+00  0.0000E+00  0.1120E+03  0.1120E+03
    -25.684  0.0000E+00  0.0000E+00  0.1120E+03  0.1120E+03
    -25.443  0.0000E+00  0.0000E+00  0.1120E+03  0.1120E+03
    -25.202  0.0000E+00  0.0000E+00  0.1120E+03  0.1120E+03
    -24.961  0.0000E+00  0.0000E+00  0.1120E+03  0.1120E+03
    -24.720  0.0000E+00  0.0000E+00  0.1120E+03  0.1120E+03
    -24.479  0.0000E+00  0.0000E+00  0.1120E+03  0.1120E+03
    -24.239  0.0000E+00  0.0000E+00  0.1120E+03  0.1120E+03
    -23.998  0.0000E+00  0.0000E+00  0.1120E+03  0.1120E+03
    -23.757  0.0000E+00  0.0000E+00  0.1120E+03  0.1120E+03
    -23.516  0.0000E+00  0.0000E+00  0.1120E+03  0.1120E+03
    -23.275  0.0000E+00  0.0000E+00  0.1120E+03  0.1120E+03
    -23.034  0.0000E+00  0.0000E+00  0.1120E+03  0.1120E+03
    -22.793  0.0000E+00  0.0000E+00  0.1120E+03  0.1120E+03
    -22.553  0.0000E+00  0.0000E+00  0.1120E+03  0.1120E+03
    -22.312  0.0000E+00  0.0000E+00  0.1120E+03  0.1120E+03
    -22.071  0.0000E+00  0.0000E+00  0.1120E+03  0.1120E+03
    -21.830  0.0000E+00  0.0000E+00  0.1120E+03  0.1120E+03
    -21.589  0.0000E+00  0.0000E+00  0.1120E+03  0.1120E+03
    -21.348  0.0000E+00  0.0000E+00  0.1120E+03  0.1120E+03
    -21.107  0.0000E+00  0.0000E+00  0.1120E+03  0.1120E+03
    -20.867  0.0000E+00  0.0000E+00  0.1120E+03  0.1120E+03
    -20.626  0.0000E+00  0.0000E+00  0.1120E+03  0.1120E+03
    -20.385  0.0000E+00  0.0000E+00  0.1120E+03  0.1120E+03
    -20.144  0.0000E+00  0.0000E+00  0.1120E+03  0.1120E+03
    -19.903  0.0000E+00  0.0000E+00  0.1120E+03  0.1120E+03
    -19.662  0.0000E+00  0.0000E+00  0.1120E+03  0.1120E+03
    -19.421  0.0000E+00  0.0000E+00  0.1120E+03  0.1120E+03
    -19.181  0.0000E+00  0.0000E+00  0.1120E+03  0.1120E+03
    -18.940  0.0000E+00  0.0000E+00  0.1120E+03  0.1120E+03
    -18.699  0.0000E+00  0.0000E+00  0.1120E+03  0.1120E+03
    -18.458  0.0000E+00  0.0000E+00  0.1120E+03  0.1120E+03
    -18.217  0.0000E+00  0.0000E+00  0.1120E+03  0.1120E+03
    -17.976  0.0000E+00  0.0000E+00  0.1120E+03  0.1120E+03
    -17.735  0.0000E+00  0.0000E+00  0.1120E+03  0.1120E+03
    -17.495  0.0000E+00  0.0000E+00  0.1120E+03  0.1120E+03
    -17.254  0.0000E+00  0.0000E+00  0.1120E+03  0.1120E+03
    -17.013  0.0000E+00  0.0000E+00  0.1120E+03  0.1120E+03
    -16.772  0.0000E+00  0.0000E+00  0.1120E+03  0.1120E+03
    -16.531  0.0000E+00  0.0000E+00  0.1120E+03  0.1120E+03
    -16.290  0.0000E+00  0.0000E+00  0.1120E+03  0.1120E+03
    -16.049  0.0000E+00  0.0000E+00  0.1120E+03  0.1120E+03
    -15.809  0.0000E+00  0.0000E+00  0.1120E+03  0.1120E+03
    -15.568  0.0000E+00  0.0000E+00  0.1120E+03  0.1120E+03
    -15.327  0.0000E+00  0.0000E+00  0.1120E+03  0.1120E+03
    -15.086  0.0000E+00  0.0000E+00  0.1120E+03  0.1120E+03
    -14.845  0.0000E+00  0.0000E+00  0.1120E+03  0.1120E+03
    -14.604  0.0000E+00  0.0000E+00  0.1120E+03  0.1120E+03
    -14.363  0.0000E+00  0.0000E+00  0.1120E+03  0.1120E+03
    -14.122  0.0000E+00  0.0000E+00  0.1120E+03  0.1120E+03
    -13.882  0.0000E+00  0.0000E+00  0.1120E+03  0.1120E+03
    -13.641  0.0000E+00  0.0000E+00  0.1120E+03  0.1120E+03
    -13.400  0.7429E-06  0.0000E+00  0.1120E+03  0.1120E+03
    -13.159  0.1927E+02  0.0000E+00  0.1166E+03  0.1120E+03
    -12.918  0.4584E+02  0.8737E-02  0.1277E+03  0.1120E+03
    -12.677  0.1318E+01  0.4269E+02  0.1280E+03  0.1223E+03
    -12.436  0.0000E+00  0.2373E+02  0.1280E+03  0.1280E+03
    -12.196  0.0000E+00  0.0000E+00  0.1280E+03  0.1280E+03
    -11.955  0.0000E+00  0.0000E+00  0.1280E+03  0.1280E+03
    -11.714  0.0000E+00  0.0000E+00  0.1280E+03  0.1280E+03
    -11.473  0.0000E+00  0.0000E+00  0.1280E+03  0.1280E+03
    -11.232  0.0000E+00  0.0000E+00  0.1280E+03  0.1280E+03
    -10.991  0.0000E+00  0.0000E+00  0.1280E+03  0.1280E+03
    -10.750  0.0000E+00  0.0000E+00  0.1280E+03  0.1280E+03
    -10.510  0.0000E+00  0.0000E+00  0.1280E+03  0.1280E+03
    -10.269  0.0000E+00  0.0000E+00  0.1280E+03  0.1280E+03
    -10.028  0.0000E+00  0.0000E+00  0.1280E+03  0.1280E+03
     -9.787  0.0000E+00  0.0000E+00  0.1280E+03  0.1280E+03
     -9.546  0.0000E+00  0.0000E+00  0.1280E+03  0.1280E+03
     -9.305  0.0000E+00  0.0000E+00  0.1280E+03  0.1280E+03
     -9.064  0.0000E+00  0.0000E+00  0.1280E+03  0.1280E+03
     -8.824  0.0000E+00  0.0000E+00  0.1280E+03  0.1280E+03
     -8.583  0.0000E+00  0.0000E+00  0.1280E+03  0.1280E+03
     -8.342  0.0000E+00  0.0000E+00  0.1280E+03  0.1280E+03
     -8.101  0.0000E+00  0.0000E+00  0.1280E+03  0.1280E+03
     -7.860  0.9950E-10  0.0000E+00  0.1280E+03  0.1280E+03
     -7.619  0.6060E+00  0.1819E-10  0.1281E+03  0.1280E+03
     -7.378  0.1276E+02  0.5372E+00  0.1312E+03  0.1281E+03
     -7.138  0.3026E+02  0.1403E+02  0.1385E+03  0.1315E+03
     -6.897  0.3434E+02  0.2944E+02  0.1468E+03  0.1386E+03
     -6.656  0.2168E+02  0.2634E+02  0.1520E+03  0.1449E+03
     -6.415  0.1740E-04  0.2925E+02  0.1520E+03  0.1520E+03
     -6.174  0.0000E+00  0.4893E-01  0.1520E+03  0.1520E+03
     -5.933  0.0000E+00  0.0000E+00  0.1520E+03  0.1520E+03
     -5.692  0.0000E+00  0.0000E+00  0.1520E+03  0.1520E+03
     -5.452  0.0000E+00  0.0000E+00  0.1520E+03  0.1520E+03
     -5.211  0.0000E+00  0.0000E+00  0.1520E+03  0.1520E+03
     -4.970  0.0000E+00  0.0000E+00  0.1520E+03  0.1520E+03
     -4.729  0.0000E+00  0.0000E+00  0.1520E+03  0.1520E+03
     -4.488  0.0000E+00  0.0000E+00  0.1520E+03  0.1520E+03
     -4.247  0.0000E+00  0.0000E+00  0.1520E+03  0.1520E+03
     -4.006  0.0000E+00  0.0000E+00  0.1520E+03  0.1520E+03
     -3.765  0.0000E+00  0.0000E+00  0.1520E+03  0.1520E+03
     -3.525  0.0000E+00  0.0000E+00  0.1520E+03  0.1520E+03
     -3.284  0.0000E+00  0.0000E+00  0.1520E+03  0.1520E+03
     -3.043  0.0000E+00  0.0000E+00  0.1520E+03  0.1520E+03
     -2.802  0.0000E+00  0.0000E+00  0.1520E+03  0.1520E+03
     -2.561  0.0000E+00  0.0000E+00  0.1520E+03  0.1520E+03
     -2.320  0.0000E+00  0.0000E+00  0.1520E+03  0.1520E+03
     -2.079  0.3350E-04  0.0000E+00  0.1520E+03  0.1520E+03
     -1.839  0.1626E+02  0.0000E+00  0.1559E+03  0.1520E+03
     -1.598  0.1945E+02  0.0000E+00  0.1606E+03  0.1520E+03
     -1.357  0.1472E+02  0.0000E+00  0.1641E+03  0.1520E+03
     -1.116  0.1720E+02  0.0000E+00  0.1683E+03  0.1520E+03
     -0.875  0.4620E+02  0.0000E+00  0.1794E+03  0.1520E+03
     -0.634  0.5907E+02  0.1308E-05  0.1936E+03  0.1520E+03
     -0.393  0.3871E+02  0.4359E+01  0.2030E+03  0.1530E+03
     -0.153  0.6821E+02  0.2033E+02  0.2194E+03  0.1579E+03
      0.088  0.7359E+02  0.1225E+02  0.2371E+03  0.1609E+03
      0.329  0.7761E+02  0.1866E+02  0.2558E+03  0.1654E+03
      0.570  0.6997E+02  0.2962E+02  0.2727E+03  0.1725E+03
      0.811  0.5509E+02  0.3930E+02  0.2859E+03  0.1820E+03
      1.052  0.3635E+02  0.3731E+02  0.2947E+03  0.1910E+03
      1.293  0.3068E+02  0.3102E+02  0.3021E+03  0.1984E+03
      1.533  0.4505E+02  0.2078E+02  0.3129E+03  0.2035E+03
      1.774  0.4257E+02  0.2886E+02  0.3232E+03  0.2104E+03
      2.015  0.6900E+02  0.3714E+02  0.3398E+03  0.2194E+03
      2.256  0.5735E+02  0.2733E+02  0.3536E+03  0.2259E+03
      2.497  0.2692E+02  0.2706E+02  0.3601E+03  0.2325E+03
      2.738  0.4275E+02  0.3103E+02  0.3704E+03  0.2399E+03
      2.979  0.2969E+02  0.4453E+02  0.3776E+03  0.2507E+03
      3.219  0.8702E+01  0.4546E+02  0.3796E+03  0.2616E+03
      3.460  0.2825E+02  0.3174E+02  0.3865E+03  0.2692E+03
      3.701  0.2701E+02  0.1230E+02  0.3930E+03  0.2722E+03
      3.942  0.3104E+02  0.1807E+02  0.4004E+03  0.2766E+03
      4.183  0.3591E+02  0.5229E+02  0.4091E+03  0.2892E+03
      4.424  0.3638E+02  0.4515E+02  0.4178E+03  0.3000E+03
      4.665  0.3012E+02  0.1648E+02  0.4251E+03  0.3040E+03
      4.905  0.2570E+02  0.3713E-02  0.4313E+03  0.3040E+03
      5.146  0.2932E+01  0.0000E+00  0.4320E+03  0.3040E+03
      5.387  0.0000E+00  0.0000E+00  0.4320E+03  0.3040E+03
      5.628  0.0000E+00  0.0000E+00  0.4320E+03  0.3040E+03
      5.869  0.0000E+00  0.0000E+00  0.4320E+03  0.3040E+03
      6.110  0.0000E+00  0.6728E-09  0.4320E+03  0.3040E+03
      6.351  0.0000E+00  0.4209E+00  0.4320E+03  0.3041E+03
      6.592  0.0000E+00  0.4208E+01  0.4320E+03  0.3051E+03
      6.832  0.0000E+00  0.7960E+01  0.4320E+03  0.3070E+03
      7.073  0.1605E-14  0.1963E+02  0.4320E+03  0.3118E+03
      7.314  0.3114E-01  0.4442E+02  0.4320E+03  0.3225E+03
      7.555  0.1226E+00  0.5368E+02  0.4320E+03  0.3354E+03
      7.796  0.2696E+00  0.6311E+02  0.4321E+03  0.3506E+03
      8.037  0.7170E+00  0.6613E+02  0.4323E+03  0.3665E+03
      8.278  0.2188E+01  0.7031E+02  0.4328E+03  0.3835E+03
      8.518  0.2650E+01  0.5883E+02  0.4334E+03  0.3976E+03
      8.759  0.8946E+01  0.5877E+02  0.4356E+03  0.4118E+03
      9.000  0.1257E+02  0.4740E+02  0.4386E+03  0.4232E+03
      9.241  0.1313E+02  0.2951E+02  0.4418E+03  0.4303E+03
      9.482  0.1810E+02  0.8731E+01  0.4461E+03  0.4324E+03
      9.723  0.1618E+02  0.3101E+01  0.4500E+03  0.4332E+03
      9.964  0.1574E+02  0.8423E+01  0.4538E+03  0.4352E+03
     10.204  0.2248E+02  0.1877E+02  0.4592E+03  0.4397E+03
     10.445  0.1486E+02  0.1798E+02  0.4628E+03  0.4440E+03
     10.686  0.1526E+02  0.1726E+02  0.4665E+03  0.4482E+03
     10.927  0.1328E+02  0.2756E+02  0.4697E+03  0.4548E+03
     11.168  0.2066E+02  0.1896E+02  0.4747E+03  0.4594E+03
     11.409  0.2494E+02  0.2405E+02  0.4807E+03  0.4652E+03
     11.650  0.2709E+02  0.1460E+02  0.4872E+03  0.4687E+03
     11.890  0.2487E+02  0.1386E+02  0.4932E+03  0.4720E+03
     12.131  0.3329E+02  0.1621E+02  0.5012E+03  0.4759E+03
     12.372  0.1983E+02  0.3704E+02  0.5060E+03  0.4849E+03
     12.613  0.2308E+02  0.3255E+02  0.5116E+03  0.4927E+03
     12.854  0.2151E+02  0.2956E+02  0.5167E+03  0.4998E+03
     13.095  0.2009E+02  0.2022E+02  0.5216E+03  0.5047E+03
     13.336  0.2425E+02  0.2239E+02  0.5274E+03  0.5101E+03
     13.576  0.2400E+02  0.2725E+02  0.5332E+03  0.5167E+03
     13.817  0.1335E+02  0.2373E+02  0.5364E+03  0.5224E+03
     14.058  0.6602E+01  0.2619E+02  0.5380E+03  0.5287E+03
     14.299  0.3565E-02  0.1913E+02  0.5380E+03  0.5333E+03
     14.540  0.0000E+00  0.1651E+02  0.5380E+03  0.5373E+03
     14.781  0.0000E+00  0.3061E+01  0.5380E+03  0.5380E+03
     15.022  0.0000E+00  0.2239E-05  0.5380E+03  0.5380E+03
     15.262  0.0000E+00  0.0000E+00  0.5380E+03  0.5380E+03
     15.503  0.0000E+00  0.0000E+00  0.5380E+03  0.5380E+03
     15.744  0.0000E+00  0.0000E+00  0.5380E+03  0.5380E+03
     15.985  0.0000E+00  0.0000E+00  0.5380E+03  0.5380E+03
     16.226  0.0000E+00  0.0000E+00  0.5380E+03  0.5380E+03
     16.467  0.0000E+00  0.0000E+00  0.5380E+03  0.5380E+03
     16.708  0.0000E+00  0.0000E+00  0.5380E+03  0.5380E+03
     16.949  0.0000E+00  0.0000E+00  0.5380E+03  0.5380E+03
     17.189  0.0000E+00  0.0000E+00  0.5380E+03  0.5380E+03
     17.430  0.0000E+00  0.0000E+00  0.5380E+03  0.5380E+03
     17.671  0.0000E+00  0.0000E+00  0.5380E+03  0.5380E+03
     17.912  0.0000E+00  0.0000E+00  0.5380E+03  0.5380E+03
