  224  224    1    2
  0.1357572E+02  0.1537960E-08  0.1537962E-08  0.1395899E-08  0.5000000E-15
  1.000000000000000E-004
  CAR 
 unknown system                          
   1664      8   1208
 
  0.0000000E+00  0.0000000E+00  0.0000000E+00  0.1250000E+00
    1      -51.143389    -46.392368   1.000000   1.000000
    2      -51.142229    -46.391418   1.000000   1.000000
    3      -51.141856    -46.390970   1.000000   1.000000
    4      -51.141775    -46.390935   1.000000   1.000000
    5      -51.141505    -46.390782   1.000000   1.000000
    6      -51.141412    -46.390596   1.000000   1.000000
    7      -51.141277    -46.390564   1.000000   1.000000
    8      -51.141171    -46.390426   1.000000   1.000000
    9      -51.141144    -46.390325   1.000000   1.000000
   10      -51.141068    -46.390234   1.000000   1.000000
   11      -51.141029    -46.390192   1.000000   1.000000
   12      -51.141000    -46.390029   1.000000   1.000000
   13      -51.140930    -46.390005   1.000000   1.000000
   14      -51.140877    -46.389988   1.000000   1.000000
   15      -51.140874    -46.389970   1.000000   1.000000
   16      -51.140817    -46.389917   1.000000   1.000000
   17      -51.140805    -46.389899   1.000000   1.000000
   18      -51.140796    -46.389811   1.000000   1.000000
   19      -51.140751    -46.389786   1.000000   1.000000
   20      -51.140678    -46.389744   1.000000   1.000000
   21      -51.140658    -46.389682   1.000000   1.000000
   22      -51.140588    -46.389620   1.000000   1.000000
   23      -51.140585    -46.389583   1.000000   1.000000
   24      -51.140528    -46.389552   1.000000   1.000000
   25      -51.140507    -46.389534   1.000000   1.000000
   26      -51.140506    -46.389515   1.000000   1.000000
   27      -51.140472    -46.389509   1.000000   1.000000
   28      -51.140470    -46.389471   1.000000   1.000000
   29      -51.140430    -46.389427   1.000000   1.000000
   30      -51.140380    -46.389356   1.000000   1.000000
   31      -51.140337    -46.389319   1.000000   1.000000
   32      -51.140319    -46.389232   1.000000   1.000000
   33      -51.140239    -46.389159   1.000000   1.000000
   34      -51.140236    -46.389067   1.000000   1.000000
   35      -51.140167    -46.388914   1.000000   1.000000
   36      -51.140159    -46.388912   1.000000   1.000000
   37      -51.140129    -46.388884   1.000000   1.000000
   38      -51.140057    -46.388880   1.000000   1.000000
   39      -51.140007    -46.388738   1.000000   1.000000
   40      -51.139975    -46.388720   1.000000   1.000000
   41      -51.139925    -46.388702   1.000000   1.000000
   42      -51.139921    -46.388668   1.000000   1.000000
   43      -51.139904    -46.388642   1.000000   1.000000
   44      -51.139889    -46.388588   1.000000   1.000000
   45      -51.139857    -46.388572   1.000000   1.000000
   46      -51.139832    -46.388561   1.000000   1.000000
   47      -51.139820    -46.388544   1.000000   1.000000
   48      -51.139780    -46.388482   1.000000   1.000000
   49      -51.139738    -46.388470   1.000000   1.000000
   50      -51.139718    -46.388453   1.000000   1.000000
   51      -51.139664    -46.388359   1.000000   1.000000
   52      -51.139624    -46.388326   1.000000   1.000000
   53      -51.139601    -46.388296   1.000000   1.000000
   54      -51.139554    -46.388239   1.000000   1.000000
   55      -51.139466    -46.388143   1.000000   1.000000
   56      -51.139455    -46.388023   1.000000   1.000000
   57      -51.139328    -46.388018   1.000000   1.000000
   58      -51.139323    -46.387907   1.000000   1.000000
   59      -51.139204    -46.387802   1.000000   1.000000
   60      -51.139051    -46.387708   1.000000   1.000000
   61      -51.139032    -46.387637   1.000000   1.000000
   62      -51.138942    -46.387440   1.000000   1.000000
   63      -51.137753    -46.386679   1.000000   1.000000
   64      -51.129540    -46.380774   1.000000   1.000000
   65      -49.649499    -45.930961   1.000000   1.000000
   66      -49.648337    -45.930018   1.000000   1.000000
   67      -49.648286    -45.929725   1.000000   1.000000
   68      -49.648222    -45.929624   1.000000   1.000000
   69      -49.647808    -45.929281   1.000000   1.000000
   70      -49.647726    -45.929118   1.000000   1.000000
   71      -49.647589    -45.928992   1.000000   1.000000
   72      -49.647503    -45.928931   1.000000   1.000000
   73      -49.647485    -45.928837   1.000000   1.000000
   74      -49.647428    -45.928815   1.000000   1.000000
   75      -49.647414    -45.928775   1.000000   1.000000
   76      -49.647368    -45.928754   1.000000   1.000000
   77      -49.647326    -45.928723   1.000000   1.000000
   78      -49.647311    -45.928658   1.000000   1.000000
   79      -49.647292    -45.928592   1.000000   1.000000
   80      -49.647253    -45.928576   1.000000   1.000000
   81      -49.647251    -45.928541   1.000000   1.000000
   82      -49.647210    -45.928537   1.000000   1.000000
   83      -49.647164    -45.928471   1.000000   1.000000
   84      -49.647158    -45.928451   1.000000   1.000000
   85      -49.647133    -45.928427   1.000000   1.000000
   86      -49.647084    -45.928349   1.000000   1.000000
   87      -49.647060    -45.928340   1.000000   1.000000
   88      -49.647052    -45.928295   1.000000   1.000000
   89      -49.646994    -45.928287   1.000000   1.000000
   90      -49.646925    -45.928274   1.000000   1.000000
   91      -49.646920    -45.928241   1.000000   1.000000
   92      -49.646910    -45.928194   1.000000   1.000000
   93      -49.646870    -45.928183   1.000000   1.000000
   94      -49.646837    -45.928158   1.000000   1.000000
   95      -49.646754    -45.928138   1.000000   1.000000
   96      -49.646725    -45.928118   1.000000   1.000000
   97      -49.646679    -45.928048   1.000000   1.000000
   98      -49.646641    -45.928042   1.000000   1.000000
   99      -49.646581    -45.928018   1.000000   1.000000
  100      -49.646577    -45.927981   1.000000   1.000000
  101      -49.646509    -45.927963   1.000000   1.000000
  102      -49.646485    -45.927884   1.000000   1.000000
  103      -49.646483    -45.927848   1.000000   1.000000
  104      -49.646457    -45.927814   1.000000   1.000000
  105      -49.646399    -45.927775   1.000000   1.000000
  106      -49.646358    -45.927760   1.000000   1.000000
  107      -49.646295    -45.927713   1.000000   1.000000
  108      -49.646290    -45.927693   1.000000   1.000000
  109      -49.646172    -45.927643   1.000000   1.000000
  110      -49.646146    -45.927618   1.000000   1.000000
  111      -49.646112    -45.927585   1.000000   1.000000
  112      -49.646071    -45.927578   1.000000   1.000000
  113      -49.646064    -45.927519   1.000000   1.000000
  114      -49.646030    -45.927514   1.000000   1.000000
  115      -49.645998    -45.927427   1.000000   1.000000
  116      -49.645963    -45.927361   1.000000   1.000000
  117      -49.645903    -45.927357   1.000000   1.000000
  118      -49.645873    -45.927324   1.000000   1.000000
  119      -49.645790    -45.927302   1.000000   1.000000
  120      -49.645726    -45.927288   1.000000   1.000000
  121      -49.645717    -45.927269   1.000000   1.000000
  122      -49.645629    -45.927226   1.000000   1.000000
  123      -49.645624    -45.927209   1.000000   1.000000
  124      -49.645618    -45.927182   1.000000   1.000000
  125      -49.645556    -45.927159   1.000000   1.000000
  126      -49.645549    -45.927147   1.000000   1.000000
  127      -49.645449    -45.927142   1.000000   1.000000
  128      -49.645437    -45.927106   1.000000   1.000000
  129      -49.645424    -45.927072   1.000000   1.000000
  130      -49.645411    -45.927039   1.000000   1.000000
  131      -49.645383    -45.926976   1.000000   1.000000
  132      -49.645351    -45.926963   1.000000   1.000000
  133      -49.645330    -45.926956   1.000000   1.000000
  134      -49.645314    -45.926933   1.000000   1.000000
  135      -49.645276    -45.926918   1.000000   1.000000
  136      -49.645248    -45.926899   1.000000   1.000000
  137      -49.645241    -45.926849   1.000000   1.000000
  138      -49.645200    -45.926836   1.000000   1.000000
  139      -49.645173    -45.926814   1.000000   1.000000
  140      -49.645170    -45.926807   1.000000   1.000000
  141      -49.645127    -45.926779   1.000000   1.000000
  142      -49.645114    -45.926735   1.000000   1.000000
  143      -49.645073    -45.926687   1.000000   1.000000
  144      -49.645060    -45.926655   1.000000   1.000000
  145      -49.644996    -45.926651   1.000000   1.000000
  146      -49.644988    -45.926630   1.000000   1.000000
  147      -49.644935    -45.926624   1.000000   1.000000
  148      -49.644911    -45.926592   1.000000   1.000000
  149      -49.644897    -45.926584   1.000000   1.000000
  150      -49.644816    -45.926576   1.000000   1.000000
  151      -49.644805    -45.926554   1.000000   1.000000
  152      -49.644758    -45.926503   1.000000   1.000000
  153      -49.644691    -45.926467   1.000000   1.000000
  154      -49.644687    -45.926465   1.000000   1.000000
  155      -49.644630    -45.926437   1.000000   1.000000
  156      -49.644614    -45.926425   1.000000   1.000000
  157      -49.644609    -45.926424   1.000000   1.000000
  158      -49.644594    -45.926396   1.000000   1.000000
  159      -49.644576    -45.926361   1.000000   1.000000
  160      -49.644536    -45.926268   1.000000   1.000000
  161      -49.644506    -45.926257   1.000000   1.000000
  162      -49.644473    -45.926247   1.000000   1.000000
  163      -49.644398    -45.926244   1.000000   1.000000
  164      -49.644371    -45.926218   1.000000   1.000000
  165      -49.644368    -45.926214   1.000000   1.000000
  166      -49.644355    -45.926192   1.000000   1.000000
  167      -49.644267    -45.926135   1.000000   1.000000
  168      -49.644264    -45.926117   1.000000   1.000000
  169      -49.644255    -45.926071   1.000000   1.000000
  170      -49.644186    -45.926010   1.000000   1.000000
  171      -49.644138    -45.925988   1.000000   1.000000
  172      -49.644087    -45.925937   1.000000   1.000000
  173      -49.644069    -45.925925   1.000000   1.000000
  174      -49.644065    -45.925919   1.000000   1.000000
  175      -49.644043    -45.925867   1.000000   1.000000
  176      -49.644013    -45.925824   1.000000   1.000000
  177      -49.643927    -45.925810   1.000000   1.000000
  178      -49.643883    -45.925745   1.000000   1.000000
  179      -49.643869    -45.925728   1.000000   1.000000
  180      -49.643818    -45.925704   1.000000   1.000000
  181      -49.643794    -45.925640   1.000000   1.000000
  182      -49.643721    -45.925549   1.000000   1.000000
  183      -49.643701    -45.925512   1.000000   1.000000
  184      -49.643588    -45.925497   1.000000   1.000000
  185      -49.643540    -45.925416   1.000000   1.000000
  186      -49.643472    -45.925289   1.000000   1.000000
  187      -49.643309    -45.925207   1.000000   1.000000
  188      -49.643190    -45.925024   1.000000   1.000000
  189      -49.643025    -45.924772   1.000000   1.000000
  190      -49.642313    -45.924161   1.000000   1.000000
  191      -49.636905    -45.919607   1.000000   1.000000
  192      -49.635944    -45.918822   1.000000   1.000000
  193      -39.642385    -39.641470   1.000000   1.000000
  194      -39.640678    -39.639760   1.000000   1.000000
  195      -39.635771    -39.634898   1.000000   1.000000
  196      -39.634375    -39.633503   1.000000   1.000000
  197      -39.634038    -39.633164   1.000000   1.000000
  198      -39.633592    -39.632718   1.000000   1.000000
  199      -39.633201    -39.632328   1.000000   1.000000
  200      -39.633068    -39.632195   1.000000   1.000000
  201      -39.632977    -39.632103   1.000000   1.000000
  202      -39.632840    -39.631966   1.000000   1.000000
  203      -39.629087    -39.628249   1.000000   1.000000
  204      -39.628759    -39.627919   1.000000   1.000000
  205      -39.628454    -39.627615   1.000000   1.000000
  206      -39.628176    -39.627336   1.000000   1.000000
  207      -39.627438    -39.626599   1.000000   1.000000
  208      -39.627387    -39.626548   1.000000   1.000000
  209      -39.627376    -39.626537   1.000000   1.000000
  210      -39.627279    -39.626439   1.000000   1.000000
  211      -39.619501    -39.618727   1.000000   1.000000
  212      -39.617826    -39.617051   1.000000   1.000000
  213      -39.617469    -39.616696   1.000000   1.000000
  214      -39.616741    -39.615964   1.000000   1.000000
  215      -39.616003    -39.615227   1.000000   1.000000
  216      -39.615948    -39.615173   1.000000   1.000000
  217      -39.615736    -39.614959   1.000000   1.000000
  218      -39.615652    -39.614875   1.000000   1.000000
  219      -39.615607    -39.614836   1.000000   1.000000
  220      -39.615485    -39.614716   1.000000   1.000000
  221      -39.615336    -39.614565   1.000000   1.000000
  222      -39.615314    -39.614535   1.000000   1.000000
  223      -39.615250    -39.614479   1.000000   1.000000
  224      -39.615231    -39.614451   1.000000   1.000000
  225      -39.615193    -39.614422   1.000000   1.000000
  226      -39.615107    -39.614337   1.000000   1.000000
  227      -39.614932    -39.614164   1.000000   1.000000
  228      -39.614842    -39.614074   1.000000   1.000000
  229      -39.614796    -39.614027   1.000000   1.000000
  230      -39.614751    -39.613982   1.000000   1.000000
  231      -39.614691    -39.613923   1.000000   1.000000
  232      -39.614603    -39.613839   1.000000   1.000000
  233      -39.614585    -39.613820   1.000000   1.000000
  234      -39.614528    -39.613759   1.000000   1.000000
  235      -39.614503    -39.613741   1.000000   1.000000
  236      -39.614422    -39.613651   1.000000   1.000000
  237      -39.613814    -39.613052   1.000000   1.000000
  238      -39.613752    -39.612991   1.000000   1.000000
  239      -39.605592    -39.604872   1.000000   1.000000
  240      -39.604738    -39.604016   1.000000   1.000000
  241      -39.604427    -39.603706   1.000000   1.000000
  242      -39.604205    -39.603484   1.000000   1.000000
  243      -39.603513    -39.602793   1.000000   1.000000
  244      -39.603458    -39.602739   1.000000   1.000000
  245      -39.603423    -39.602703   1.000000   1.000000
  246      -39.603348    -39.602627   1.000000   1.000000
  247      -39.601004    -39.600296   1.000000   1.000000
  248      -39.600117    -39.599409   1.000000   1.000000
  249      -39.599993    -39.599286   1.000000   1.000000
  250      -39.599731    -39.599024   1.000000   1.000000
  251      -39.599355    -39.598649   1.000000   1.000000
  252      -39.599197    -39.598490   1.000000   1.000000
  253      -39.599112    -39.598405   1.000000   1.000000
  254      -39.598989    -39.598282   1.000000   1.000000
  255      -39.593901    -39.593217   1.000000   1.000000
  256      -39.592885    -39.592201   1.000000   1.000000
  257      -12.747915    -12.468486   1.000000   1.000000
  258      -12.746788    -12.467318   1.000000   1.000000
  259      -12.720807    -12.441138   1.000000   1.000000
  260      -12.720050    -12.440338   1.000000   1.000000
  261      -12.719831    -12.440106   1.000000   1.000000
  262      -12.719411    -12.439666   1.000000   1.000000
  263      -12.719140    -12.439379   1.000000   1.000000
  264      -12.718992    -12.439210   1.000000   1.000000
  265      -12.718907    -12.439133   1.000000   1.000000
  266      -12.718631    -12.438945   1.000000   1.000000
  267      -12.697457    -12.417323   1.000000   1.000000
  268      -12.697380    -12.417289   1.000000   1.000000
  269      -12.695486    -12.415889   1.000000   1.000000
  270      -12.695424    -12.415850   1.000000   1.000000
  271      -12.694470    -12.414852   1.000000   1.000000
  272      -12.694228    -12.414629   1.000000   1.000000
  273      -12.692679    -12.413532   1.000000   1.000000
  274      -12.692442    -12.413325   1.000000   1.000000
  275      -12.691729    -12.411803   1.000000   1.000000
  276      -12.691715    -12.411780   1.000000   1.000000
  277      -12.690965    -12.410922   1.000000   1.000000
  278      -12.690662    -12.410666   1.000000   1.000000
  279      -12.673212    -12.393317   1.000000   1.000000
  280      -12.672869    -12.392880   1.000000   1.000000
  281      -12.672752    -12.392753   1.000000   1.000000
  282      -12.672596    -12.392578   1.000000   1.000000
  283      -12.667778    -12.388885   1.000000   1.000000
  284      -12.667714    -12.388814   1.000000   1.000000
  285      -12.667601    -12.388712   1.000000   1.000000
  286      -12.667506    -12.388604   1.000000   1.000000
  287      -12.654649    -12.374723   1.000000   1.000000
  288      -12.643837    -12.366121   1.000000   1.000000
  289       -7.800181     -7.599159   1.000000   1.000000
  290       -7.748365     -7.551626   1.000000   1.000000
  291       -7.505978     -7.319635   1.000000   1.000000
  292       -7.505340     -7.319085   1.000000   1.000000
  293       -7.505338     -7.319064   1.000000   1.000000
  294       -7.505272     -7.318993   1.000000   1.000000
  295       -7.501616     -7.309413   1.000000   1.000000
  296       -7.500920     -7.308779   1.000000   1.000000
  297       -7.500857     -7.308719   1.000000   1.000000
  298       -7.500796     -7.308655   1.000000   1.000000
  299       -7.315385     -7.117889   1.000000   1.000000
  300       -7.315069     -7.117605   1.000000   1.000000
  301       -7.297162     -7.093836   1.000000   1.000000
  302       -7.297019     -7.093717   1.000000   1.000000
  303       -7.296984     -7.093695   1.000000   1.000000
  304       -7.296445     -7.093126   1.000000   1.000000
  305       -7.269563     -7.062221   1.000000   1.000000
  306       -7.269146     -7.061836   1.000000   1.000000
  307       -7.088528     -6.894268   1.000000   1.000000
  308       -7.085159     -6.894010   1.000000   1.000000
  309       -7.084812     -6.893477   1.000000   1.000000
  310       -7.084316     -6.893464   1.000000   1.000000
  311       -7.084291     -6.796585   1.000000   1.000000
  312       -7.046483     -6.783657   1.000000   1.000000
  313       -7.000799     -6.768638   1.000000   1.000000
  314       -7.000008     -6.768075   1.000000   1.000000
  315       -6.999868     -6.767592   1.000000   1.000000
  316       -6.999763     -6.767562   1.000000   1.000000
  317       -6.999658     -6.766906   1.000000   1.000000
  318       -6.999526     -6.766323   1.000000   1.000000
  319       -6.999378     -6.766161   1.000000   1.000000
  320       -6.999136     -6.766071   1.000000   1.000000
  321       -6.994178     -6.765964   1.000000   1.000000
  322       -6.994158     -6.765797   1.000000   1.000000
  323       -6.994047     -6.765638   1.000000   1.000000
  324       -6.993970     -6.765355   1.000000   1.000000
  325       -6.956545     -6.744862   1.000000   1.000000
  326       -6.955917     -6.744852   1.000000   1.000000
  327       -6.955428     -6.744741   1.000000   1.000000
  328       -6.955401     -6.744566   1.000000   1.000000
  329       -6.948273     -6.697356   1.000000   1.000000
  330       -6.948230     -6.697350   1.000000   1.000000
  331       -6.928617     -6.689046   1.000000   1.000000
  332       -6.928588     -6.689012   1.000000   1.000000
  333       -6.928519     -6.688929   1.000000   1.000000
  334       -6.928488     -6.688864   1.000000   1.000000
  335       -6.911644     -6.640607   1.000000   1.000000
  336       -6.910966     -6.639256   1.000000   1.000000
  337       -6.886025     -6.639154   1.000000   1.000000
  338       -6.885830     -6.639011   1.000000   1.000000
  339       -6.885374     -6.638912   1.000000   1.000000
  340       -6.885269     -6.638829   1.000000   1.000000
  341       -6.878285     -6.638599   1.000000   1.000000
  342       -6.877044     -6.638593   1.000000   1.000000
  343       -6.876903     -6.638553   1.000000   1.000000
  344       -6.876802     -6.638512   1.000000   1.000000
  345       -6.876705     -6.637860   1.000000   1.000000
  346       -6.876561     -6.637748   1.000000   1.000000
  347       -6.876417     -6.628355   1.000000   1.000000
  348       -6.876152     -6.627678   1.000000   1.000000
  349       -6.832659     -6.586626   1.000000   1.000000
  350       -6.832502     -6.586526   1.000000   1.000000
  351       -6.794730     -6.499517   1.000000   1.000000
  352       -6.793916     -6.498707   1.000000   1.000000
  353       -1.525544     -0.414812   1.000000   1.000000
  354       -1.467865     -0.414704   1.000000   1.000000
  355       -1.467698     -0.414330   1.000000   1.000000
  356       -1.467603     -0.414188   1.000000   1.000000
  357       -1.467574      0.025740   1.000000   1.000000
  358       -1.460501      0.026318   1.000000   1.000000
  359       -1.460364      0.026442   1.000000   1.000000
  360       -1.460184      0.026460   1.000000   1.000000
  361       -1.460009      0.037464   1.000000   1.000000
  362       -1.421413      0.037676   1.000000   1.000000
  363       -1.421345      0.037782   1.000000   1.000000
  364       -1.383050      0.037977   1.000000   1.000000
  365       -1.383025      0.038214   1.000000   1.000000
  366       -1.382612      0.038244   1.000000   1.000000
  367       -1.382438      0.038437   1.000000   1.000000
  368       -1.333249      0.038495   1.000000   1.000000
  369       -1.332790      0.102690   1.000000   1.000000
  370       -1.332540      0.102861   1.000000   1.000000
  371       -1.332490      0.207037   1.000000   1.000000
  372       -1.332417      0.207255   1.000000   1.000000
  373       -1.332381      0.207758   1.000000   1.000000
  374       -1.332179      0.207808   1.000000   1.000000
  375       -1.331927      0.303941   1.000000   1.000000
  376       -1.292574      0.392298   1.000000   1.000000
  377       -1.292501      0.392438   1.000000   1.000000
  378       -1.292441      0.392593   1.000000   1.000000
  379       -1.292390      0.392693   1.000000   1.000000
  380       -1.257104      0.490842   1.000000   1.000000
  381       -1.256465      0.490921   1.000000   1.000000
  382       -1.232220      0.497609   1.000000   1.000000
  383       -1.232098      0.497644   1.000000   1.000000
  384       -1.220383      0.497750   1.000000   1.000000
  385       -0.822875      0.497945   1.000000   1.000000
  386       -0.822775      0.510648   1.000000   1.000000
  387       -0.822645      0.510721   1.000000   1.000000
  388       -0.822414      0.530927   1.000000   1.000000
  389       -0.722684      0.531003   1.000000   1.000000
  390       -0.722618      0.531470   1.000000   1.000000
  391       -0.699157      0.531559   1.000000   1.000000
  392       -0.699042      0.573975   1.000000   1.000000
  393       -0.698962      0.574089   1.000000   1.000000
  394       -0.698886      0.574242   1.000000   1.000000
  395       -0.688655      0.574261   1.000000   1.000000
  396       -0.688376      0.574592   1.000000   1.000000
  397       -0.688197      0.574619   1.000000   1.000000
  398       -0.687854      0.574658   1.000000   1.000000
  399       -0.666678      0.574691   1.000000   1.000000
  400       -0.666650      0.638485   1.000000   1.000000
  401       -0.666368      0.666253   1.000000   1.000000
  402       -0.666317      0.666438   1.000000   1.000000
  403       -0.651984      0.732548   1.000000   1.000000
  404       -0.651880      0.733413   1.000000   1.000000
  405       -0.651782      0.931471   1.000000   1.000000
  406       -0.651715      0.932655   1.000000   1.000000
  407       -0.589473      0.935605   1.000000   1.000000
  408       -0.589327      0.935675   1.000000   1.000000
  409       -0.576691      0.948874   1.000000   1.000000
  410       -0.576626      0.948929   1.000000   1.000000
  411       -0.576397      0.949016   1.000000   1.000000
  412       -0.576323      0.949152   1.000000   1.000000
  413       -0.553351      0.985948   1.000000   1.000000
  414       -0.553317      0.986040   1.000000   1.000000
  415       -0.553015      0.986412   1.000000   1.000000
  416       -0.552944      0.986478   1.000000   1.000000
  417       -0.497517      0.992657   1.000000   1.000000
  418       -0.496759      0.992849   1.000000   1.000000
  419       -0.472828      1.008606   1.000000   1.000000
  420       -0.472599      1.008702   1.000000   1.000000
  421       -0.461563      1.009130   1.000000   1.000000
  422       -0.461448      1.009162   1.000000   1.000000
  423       -0.461202      1.018560   1.000000   1.000000
  424       -0.461001      1.048757   1.000000   1.000000
  425       -0.459682      1.049098   1.000000   1.000000
  426       -0.459588      1.051580   1.000000   1.000000
  427       -0.459290      1.051701   1.000000   1.000000
  428       -0.459183      1.051806   1.000000   1.000000
  429       -0.410041      1.051876   1.000000   1.000000
  430       -0.409886      1.078698   1.000000   1.000000
  431       -0.407796      1.078810   1.000000   1.000000
  432       -0.407597      1.078835   1.000000   1.000000
  433       -0.407453      1.078955   1.000000   1.000000
  434       -0.407211      1.079629   1.000000   1.000000
  435       -0.407163      1.079666   1.000000   1.000000
  436       -0.406995      1.080021   1.000000   1.000000
  437       -0.383226      1.080123   1.000000   1.000000
  438       -0.383215      1.192767   1.000000   1.000000
  439       -0.378306      1.193069   1.000000   1.000000
  440       -0.368995      1.376421   1.000000   1.000000
  441       -0.368981      1.390318   1.000000   1.000000
  442       -0.368698      1.390888   1.000000   1.000000
  443       -0.368681      1.391037   1.000000   1.000000
  444       -0.368657      1.391253   1.000000   1.000000
  445       -0.368622      1.391446   1.000000   1.000000
  446       -0.368593      1.437307   1.000000   1.000000
  447       -0.368565      1.450197   1.000000   1.000000
  448       -0.353610      1.526112   1.000000   1.000000
  449       -0.353416      1.526193   1.000000   1.000000
  450       -0.348986      1.526324   1.000000   1.000000
  451       -0.341708      1.526373   1.000000   1.000000
  452       -0.335925      1.528878   1.000000   1.000000
  453       -0.335545      1.528942   1.000000   1.000000
  454       -0.335503      1.528972   1.000000   1.000000
  455       -0.335148      1.529040   1.000000   1.000000
  456       -0.334385      1.557944   1.000000   1.000000
  457       -0.334193      1.557992   1.000000   1.000000
  458       -0.333891      1.558561   1.000000   1.000000
  459       -0.333747      1.558640   1.000000   1.000000
  460       -0.324236      1.566188   1.000000   1.000000
  461       -0.324191      1.566417   1.000000   1.000000
  462       -0.323835      1.566775   1.000000   1.000000
  463       -0.323742      1.566960   1.000000   1.000000
  464       -0.321567      1.567998   1.000000   1.000000
  465       -0.321561      1.568278   1.000000   1.000000
  466       -0.321109      1.568455   1.000000   1.000000
  467       -0.321082      1.568561   1.000000   1.000000
  468       -0.303748      1.586372   1.000000   1.000000
  469       -0.295806      1.586678   1.000000   1.000000
  470       -0.288160      1.695495   1.000000   1.000000
  471       -0.287807      1.695745   1.000000   1.000000
  472       -0.287778      1.740743   1.000000   1.000000
  473       -0.287691      1.741013   1.000000   1.000000
  474       -0.280378      1.741136   1.000000   1.000000
  475       -0.280272      1.741171   1.000000   1.000000
  476       -0.275186      1.746174   1.000000   1.000000
  477       -0.274913      1.746240   1.000000   1.000000
  478       -0.274852      1.747266   1.000000   1.000000
  479       -0.274617      1.747304   1.000000   1.000000
  480       -0.241822      1.778944   1.000000   1.000000
  481       -0.241722      1.780611   1.000000   1.000000
  482       -0.241599      1.780643   1.000000   1.000000
  483       -0.241441      1.836522   1.000000   1.000000
  484       -0.241419      1.836830   1.000000   1.000000
  485       -0.241341      1.837139   1.000000   1.000000
  486       -0.241244      1.837392   1.000000   1.000000
  487       -0.241084      1.837438   1.000000   1.000000
  488       -0.207426      1.838043   1.000000   1.000000
  489       -0.207420      1.838118   1.000000   1.000000
  490       -0.199834      1.838757   1.000000   1.000000
  491       -0.199610      1.866073   1.000000   1.000000
  492       -0.199481      1.866625   1.000000   1.000000
  493       -0.199252      1.913010   1.000000   1.000000
  494       -0.193977      1.913064   1.000000   1.000000
  495       -0.193804      1.913280   1.000000   1.000000
  496       -0.164025      1.913373   1.000000   1.000000
  497       -0.163920      1.913711   1.000000   1.000000
  498       -0.163791      1.913766   1.000000   1.000000
  499       -0.163666      1.913795   1.000000   1.000000
  500       -0.156643      1.913839   1.000000   1.000000
  501       -0.156534      1.926499   1.000000   1.000000
  502       -0.156148      1.926935   1.000000   1.000000
  503       -0.156049      1.927199   1.000000   1.000000
  504       -0.139114      1.927214   1.000000   1.000000
  505       -0.138918      2.133235   1.000000   1.000000
  506       -0.138857      2.133280   1.000000   1.000000
  507       -0.138537      2.191523   1.000000   1.000000
  508       -0.090939      2.193456   1.000000   1.000000
  509       -0.090931      2.300545   1.000000   1.000000
  510       -0.082415      2.300930   1.000000   1.000000
  511       -0.082358      2.301012   1.000000   1.000000
  512       -0.082348      2.301342   1.000000   1.000000