 vasp.5.4.4.18Apr17-6-g9f103f2a35 (build Oct 25 2017 14:42:18) complex          
  
 executed on             LinuxIFC date 2021.06.02  17:52:44
 running on   24 total cores
 distrk:  each k-point on   12 cores,    2 groups
 distr:  one band on NCORES_PER_BAND=   6 cores,    2 groups


--------------------------------------------------------------------------------------------------------


 INCAR:
 POTCAR:    PAW_PBE Li_sv 10Sep2004               
 POTCAR:    PAW_PBE O 08Apr2002                   
 POTCAR:    PAW_PBE S 06Sep2000                   
 POTCAR:    PAW_PBE Fe_pv 02Aug2007               

 ----------------------------------------------------------------------------- 
|                                                                             |
|           W    W    AA    RRRRR   N    N  II  N    N   GGGG   !!!           |
|           W    W   A  A   R    R  NN   N  II  NN   N  G    G  !!!           |
|           W    W  A    A  R    R  N N  N  II  N N  N  G       !!!           |
|           W WW W  AAAAAA  RRRRR   N  N N  II  N  N N  G  GGG   !            |
|           WW  WW  A    A  R   R   N   NN  II  N   NN  G    G                |
|           W    W  A    A  R    R  N    N  II  N    N   GGGG   !!!           |
|                                                                             |
|      You have enabled k-point parallelism (KPAR>1).                         |
|      This developmental code was originally  written by Paul Kent at ORNL,  |
|      and carefully double checked in Vienna.                                |
|      GW as well as linear response parallelism added by Martijn Marsman     |
|      and Georg Kresse.                                                      |
|      Carefully verify results versus KPAR=1.                                |
|      Report problems to Paul Kent and Vienna.                               |
|                                                                             |
 ----------------------------------------------------------------------------- 

 POTCAR:    PAW_PBE Li_sv 10Sep2004               
  local pseudopotential read in
  atomic valenz-charges read in
  non local Contribution for L=           0  read in
    real space projection operators read in
  non local Contribution for L=           0  read in
    real space projection operators read in
  non local Contribution for L=           1  read in
    real space projection operators read in
    PAW grid and wavefunctions read in
 
   number of l-projection  operators is LMAX  =           3
   number of lm-projection operators is LMMAX =           5
 
 POTCAR:    PAW_PBE O 08Apr2002                   
  local pseudopotential read in
  partial core-charges read in
  partial kinetic energy density read in
  kinetic energy density of atom read in
  atomic valenz-charges read in
  non local Contribution for L=           0  read in
    real space projection operators read in
  non local Contribution for L=           0  read in
    real space projection operators read in
  non local Contribution for L=           1  read in
    real space projection operators read in
  non local Contribution for L=           1  read in
    real space projection operators read in
    PAW grid and wavefunctions read in
 
   number of l-projection  operators is LMAX  =           4
   number of lm-projection operators is LMMAX =           8
 
 POTCAR:    PAW_PBE S 06Sep2000                   
  local pseudopotential read in
  partial core-charges read in
  partial kinetic energy density read in
  atomic valenz-charges read in
  non local Contribution for L=           0  read in
    real space projection operators read in
  non local Contribution for L=           0  read in
    real space projection operators read in
  non local Contribution for L=           1  read in
    real space projection operators read in
  non local Contribution for L=           1  read in
    real space projection operators read in
    PAW grid and wavefunctions read in
 
   number of l-projection  operators is LMAX  =           4
   number of lm-projection operators is LMMAX =           8
 
 POTCAR:    PAW_PBE Fe_pv 02Aug2007               
  local pseudopotential read in
  partial core-charges read in
  partial kinetic energy density read in
  atomic valenz-charges read in
  non local Contribution for L=           1  read in
    real space projection operators read in
  non local Contribution for L=           1  read in
    real space projection operators read in
  non local Contribution for L=           2  read in
    real space projection operators read in
  non local Contribution for L=           2  read in
    real space projection operators read in
  non local Contribution for L=           0  read in
    real space projection operators read in
  non local Contribution for L=           0  read in
    real space projection operators read in
    PAW grid and wavefunctions read in
 
   number of l-projection  operators is LMAX  =           6
   number of lm-projection operators is LMMAX =          18
 

 ----------------------------------------------------------------------------- 
|                                                                             |
|  ADVICE TO THIS USER RUNNING 'VASP/VAMP'   (HEAR YOUR MASTER'S VOICE ...):  |
|                                                                             |
|      You have a (more or less) 'large supercell' and for larger cells       |
|      it might be more efficient to use real space projection opertators     |
|      So try LREAL= Auto  in the INCAR   file.                               |
|      Mind:          For very  accurate calculation you might also keep the  |
|      reciprocal projection scheme          (i.e. LREAL=.FALSE.)             |
|                                                                             |
 ----------------------------------------------------------------------------- 

  PAW_PBE Li_sv 10Sep2004               :
 energy of atom  1       EATOM= -202.7858
 kinetic energy error for atom=    0.0072 (will be added to EATOM!!)
  PAW_PBE O 08Apr2002                   :
 energy of atom  2       EATOM= -432.3788
 kinetic energy error for atom=    0.0129 (will be added to EATOM!!)
  PAW_PBE S 06Sep2000                   :
 energy of atom  3       EATOM= -276.8230
 kinetic energy error for atom=    0.0008 (will be added to EATOM!!)
  PAW_PBE Fe_pv 02Aug2007               :
 energy of atom  4       EATOM=-2457.4239
 kinetic energy error for atom=    0.0041 (will be added to EATOM!!)
 
 
 POSCAR: # Compound: Li16O16S24Fe32. Old comment:
  positions in direct lattice
  No initial velocities read in
 exchange correlation table for  LEXCH =        8
   RHO(1)=    0.500       N(1)  =     2000
   RHO(2)=  100.500       N(2)  =     4000
 


--------------------------------------------------------------------------------------------------------


 ion  position               nearest neighbor table
   1  0.289  0.469  0.156-  27 2.00  29 2.00  55 2.53  49 2.54
   2  0.789  0.469  0.156-  28 2.00  30 2.00  56 2.53  50 2.53
   3  0.289  0.969  0.156-  25 2.00  31 2.00  53 2.53  51 2.53
   4  0.789  0.969  0.156-  26 2.00  32 2.00  54 2.53  52 2.53
   5  0.046  0.219  0.186-  30 1.98  25 1.98
   6  0.546  0.219  0.186-  29 1.98  26 1.98
   7  0.046  0.719  0.186-  32 1.98  27 1.98
   8  0.546  0.719  0.186-  31 1.98  28 1.98
   9  0.454  0.469  0.814-  20 1.98  21 1.98
  10  0.954  0.469  0.814-  19 1.98  22 1.98
  11  0.454  0.969  0.814-  18 1.98  23 1.98
  12  0.954  0.969  0.814-  17 1.98  24 1.98
  13  0.211  0.219  0.844-  21 2.00  17 2.00  49 2.52  53 2.53
  14  0.711  0.219  0.844-  22 2.00  18 2.00  50 2.53  54 2.53
  15  0.211  0.719  0.844-  23 2.00  19 2.00  51 2.53  55 2.53
  16  0.711  0.719  0.844-  24 2.00  20 2.00  52 2.53  56 2.53
  17  0.077  0.095  0.803-  12 1.98  13 2.00  57 2.01  83 2.01  86 2.01
  18  0.577  0.095  0.803-  11 1.98  14 2.00  58 2.01  84 2.01  85 2.01
  19  0.077  0.595  0.803-  10 1.98  15 2.00  59 2.01  81 2.01  88 2.01
  20  0.577  0.595  0.803-   9 1.98  16 2.00  60 2.01  82 2.01  87 2.01
  21  0.325  0.343  0.803-   9 1.98  13 2.00  61 2.01  81 2.01  85 2.01
  22  0.825  0.343  0.803-  10 1.98  14 2.00  62 2.01  82 2.01  86 2.01
  23  0.325  0.843  0.803-  11 1.98  15 2.00  63 2.01  83 2.01  87 2.01
  24  0.825  0.843  0.803-  12 1.98  16 2.00  64 2.01  84 2.01  88 2.01
  25  0.175  0.093  0.197-   5 1.98   3 2.00  65 2.01  77 2.01  75 2.01
  26  0.675  0.093  0.197-   6 1.98   4 2.00  66 2.01  78 2.01  76 2.01
  27  0.175  0.593  0.197-   7 1.98   1 2.00  67 2.01  79 2.01  73 2.01
  28  0.675  0.593  0.197-   8 1.98   2 2.00  68 2.01  80 2.01  74 2.01
  29  0.423  0.345  0.197-   6 1.98   1 2.00  69 2.01  77 2.01  74 2.01
  30  0.923  0.345  0.197-   5 1.98   2 2.00  70 2.01  78 2.01  73 2.01
  31  0.423  0.845  0.197-   8 1.98   3 2.00  71 2.01  79 2.01  76 2.01
  32  0.923  0.845  0.197-   7 1.98   4 2.00  72 2.01  80 2.01  75 2.01
  33  0.219  0.345  0.371-  61 2.41  67 2.65  69 2.65
  34  0.719  0.345  0.371-  62 2.41  68 2.65  70 2.65
  35  0.219  0.845  0.371-  63 2.41  65 2.65  71 2.65
  36  0.719  0.845  0.371-  64 2.41  66 2.65  72 2.65
  37  0.467  0.093  0.371-  58 2.41  71 2.65  65 2.65
  38  0.967  0.093  0.371-  57 2.41  72 2.65  66 2.65
  39  0.467  0.593  0.371-  60 2.41  69 2.65  67 2.65
  40  0.967  0.593  0.371-  59 2.41  70 2.65  68 2.65
  41  0.033  0.343  0.629-  70 2.41  57 2.65  61 2.65
  42  0.533  0.343  0.629-  69 2.41  58 2.65  62 2.65
  43  0.033  0.843  0.629-  72 2.41  59 2.65  63 2.65
  44  0.533  0.843  0.629-  71 2.41  60 2.65  64 2.65
  45  0.281  0.095  0.629-  65 2.41  61 2.65  57 2.65
  46  0.781  0.095  0.629-  66 2.41  62 2.65  58 2.65
  47  0.281  0.595  0.629-  67 2.41  63 2.65  59 2.65
  48  0.781  0.595  0.629-  68 2.41  64 2.65  60 2.65
  49  0.124  0.344  0.999-  86 2.51  81 2.51  73 2.52  13 2.52  77 2.53   1 2.54
  50  0.624  0.344  0.000-  74 2.51  85 2.51  82 2.52  78 2.52  14 2.53   2 2.53
  51  0.124  0.844  0.000-  75 2.51  88 2.51  83 2.52  79 2.52  15 2.53   3 2.53
  52  0.624  0.844  0.000-  76 2.51  87 2.51  84 2.52  80 2.52  16 2.53   4 2.53
  53  0.376  0.094  1.000-  85 2.51  76 2.51  77 2.52  83 2.52   3 2.53  13 2.53
  54  0.876  0.094  1.000-  86 2.51  75 2.51  78 2.52  84 2.52   4 2.53  14 2.53
  55  0.376  0.594  1.000-  87 2.51  74 2.51  79 2.52  81 2.52   1 2.53  15 2.53
  56  0.876  0.594  1.000-  88 2.51  73 2.51  80 2.52  82 2.52   2 2.53  16 2.53
  57  0.038  0.106  0.606-  17 2.01  38 2.41  41 2.65  45 2.65
  58  0.538  0.106  0.606-  18 2.01  37 2.41  42 2.65  46 2.65
  59  0.038  0.606  0.606-  19 2.01  40 2.41  43 2.65  47 2.65
  60  0.538  0.606  0.606-  20 2.01  39 2.41  44 2.65  48 2.65
  61  0.265  0.332  0.606-  21 2.01  33 2.41  45 2.65  41 2.65
  62  0.765  0.332  0.606-  22 2.01  34 2.41  46 2.65  42 2.65
  63  0.265  0.832  0.606-  23 2.01  35 2.41  47 2.65  43 2.65
  64  0.765  0.832  0.606-  24 2.01  36 2.41  48 2.65  44 2.65
  65  0.235  0.082  0.394-  25 2.01  45 2.41  35 2.65  37 2.65
  66  0.735  0.082  0.394-  26 2.01  46 2.41  36 2.65  38 2.65
  67  0.235  0.582  0.394-  27 2.01  47 2.41  33 2.65  39 2.65
  68  0.735  0.582  0.394-  28 2.01  48 2.41  34 2.65  40 2.65
  69  0.462  0.356  0.394-  29 2.01  42 2.41  39 2.65  33 2.65
  70  0.962  0.356  0.394-  30 2.01  41 2.41  40 2.65  34 2.65
  71  0.462  0.856  0.394-  31 2.01  44 2.41  37 2.65  35 2.65
  72  0.962  0.856  0.394-  32 2.01  43 2.41  38 2.65  36 2.65
  73  0.038  0.469  0.154-  30 2.01  27 2.01  56 2.51  49 2.52
  74  0.538  0.469  0.154-  29 2.01  28 2.01  50 2.51  55 2.51
  75  0.038  0.969  0.154-  32 2.01  25 2.01  51 2.51  54 2.51
  76  0.538  0.969  0.154-  31 2.01  26 2.01  52 2.51  53 2.51
  77  0.289  0.219  0.154-  25 2.01  29 2.01  53 2.52  49 2.53
  78  0.789  0.219  0.154-  26 2.01  30 2.01  54 2.52  50 2.52
  79  0.289  0.719  0.154-  27 2.01  31 2.01  55 2.52  51 2.52
  80  0.789  0.719  0.154-  28 2.01  32 2.01  56 2.52  52 2.52
  81  0.211  0.469  0.846-  21 2.01  19 2.01  49 2.51  55 2.52
  82  0.711  0.469  0.846-  22 2.01  20 2.01  50 2.52  56 2.52
  83  0.211  0.969  0.846-  23 2.01  17 2.01  51 2.52  53 2.52
  84  0.711  0.969  0.846-  24 2.01  18 2.01  52 2.52  54 2.52
  85  0.462  0.219  0.846-  18 2.01  21 2.01  53 2.51  50 2.51
  86  0.962  0.219  0.846-  17 2.01  22 2.01  49 2.51  54 2.51
  87  0.462  0.719  0.846-  20 2.01  23 2.01  55 2.51  52 2.51
  88  0.962  0.719  0.846-  19 2.01  24 2.01  56 2.51  51 2.51
 

IMPORTANT INFORMATION: All symmetrisations will be switched off!
NOSYMM: (Re-)initialisation of all symmetry stuff for point group C_1.

 
 
 KPOINTS: # No comment                            

Automatic generation of k-mesh.
Space group operators:
 irot       det(A)        alpha          n_x          n_y          n_z        tau_x        tau_y        tau_z
    1     1.000000     0.000000     1.000000     0.000000     0.000000     0.000000     0.000000     0.000000
 
 Subroutine IBZKPT returns following result:
 ===========================================
 
 Found     14 irreducible k-points:
 
 Following reciprocal coordinates:
            Coordinates               Weight
  0.000000  0.000000  0.000000      1.000000
  0.333333  0.000000  0.000000      2.000000
  0.000000  0.333333  0.000000      2.000000
  0.333333  0.333333  0.000000      2.000000
 -0.333333  0.333333 -0.000000      2.000000
  0.000000  0.000000  0.333333      2.000000
  0.333333  0.000000  0.333333      2.000000
 -0.333333  0.000000  0.333333      2.000000
  0.000000  0.333333  0.333333      2.000000
  0.333333  0.333333  0.333333      2.000000
 -0.333333  0.333333  0.333333      2.000000
  0.000000 -0.333333  0.333333      2.000000
  0.333333 -0.333333  0.333333      2.000000
 -0.333333 -0.333333  0.333333      2.000000
 
 Following cartesian coordinates:
            Coordinates               Weight
  0.000000  0.000000  0.000000      1.000000
  0.029997  0.000000  0.008162      2.000000
  0.000000  0.029983  0.000000      2.000000
  0.029997  0.029983  0.008162      2.000000
 -0.029997  0.029983 -0.008162      2.000000
  0.000001  0.000000  0.032684      2.000000
  0.029998  0.000000  0.040846      2.000000
 -0.029996  0.000000  0.024522      2.000000
  0.000001  0.029983  0.032684      2.000000
  0.029998  0.029983  0.040846      2.000000
 -0.029996  0.029983  0.024522      2.000000
  0.000001 -0.029983  0.032684      2.000000
  0.029998 -0.029983  0.040846      2.000000
 -0.029996 -0.029983  0.024522      2.000000
 


--------------------------------------------------------------------------------------------------------




 Dimension of arrays:
   k-points           NKPTS =     14   k-points in BZ     NKDIM =     14   number of bands    NBANDS=    538
   number of dos      NEDOS =    301   number of ions     NIONS =     88
   non local maximal  LDIM  =      6   non local SUM 2l+1 LMDIM =     18
   total plane-waves  NPLWV = 829440
   max r-space proj   IRMAX =      1   max aug-charges    IRDMAX= 166102
   dimension x,y,z NGX =    96 NGY =   96 NGZ =   90
   dimension x,y,z NGXF=   192 NGYF=  192 NGZF=  180
   support grid    NGXF=   384 NGYF=  384 NGZF=  360
   ions per type =              16  16  24  32
   NGX,Y,Z   is equivalent  to a cutoff of  14.36, 14.36, 14.16 a.u.
   NGXF,Y,Z  is equivalent  to a cutoff of  28.72, 28.71, 28.31 a.u.

 SYSTEM =  unknown system                          
 POSCAR =  # Compound: Li16O16S24Fe32. Old comment:

 Startparameter for this run:
   NWRITE =      1    write-flag & timer
   PREC   = accura    normal or accurate (medium, high low for compatibility)
   ISTART =      0    job   : 0-new  1-cont  2-samecut
   ICHARG =      1    charge: 1-file 2-atom 10-const
   ISPIN  =      2    spin polarized calculation?
   LNONCOLLINEAR =      F non collinear calculations
   LSORBIT =      F    spin-orbit coupling
   INIWAV =      1    electr: 0-lowe 1-rand  2-diag
   LASPH  =      T    aspherical Exc in radial PAW
   METAGGA=      F    non-selfconsistent MetaGGA calc.

 Electronic Relaxation 1
   ENCUT  =  650.0 eV  47.77 Ry    6.91 a.u.  23.10 23.11 21.97*2*pi/ulx,y,z
   ENINI  =  650.0     initial cutoff
   ENAUG  =  628.9 eV  augmentation charge cutoff
   NELM   =    200;   NELMIN=  8; NELMDL=  0     # of ELM steps 
   EDIFF  = 0.1E-05   stopping-criterion for ELM
   LREAL  =      F    real-space projection
   NLSPLINE    = F    spline interpolate recip. space projectors
   LCOMPAT=      F    compatible to vasp.4.4
   GGA_COMPAT  = T    GGA compatible to vasp.4.4-vasp.4.6
   LMAXPAW     = -100 max onsite density
   LMAXMIX     =    4 max onsite mixed and CHGCAR
   VOSKOWN=      0    Vosko Wilk Nusair interpolation
   ROPT   =    0.00000   0.00000   0.00000   0.00000
 Ionic relaxation
   EDIFFG = 0.1E-04   stopping-criterion for IOM
   NSW    =      0    number of steps for IOM
   NBLOCK =      1;   KBLOCK =      1    inner block; outer block 
   IBRION =     -1    ionic relax: 0-MD 1-quasi-New 2-CG
   NFREE  =      0    steps in history (QN), initial steepest desc. (CG)
   ISIF   =      2    stress and relaxation
   IWAVPR =     10    prediction:  0-non 1-charg 2-wave 3-comb
   ISYM   =      0    0-nonsym 1-usesym 2-fastsym
   LCORR  =      T    Harris-Foulkes like correction to forces

   POTIM  = 0.5000    time-step for ionic-motion
   TEIN   =    0.0    initial temperature
   TEBEG  =    0.0;   TEEND  =   0.0 temperature during run
   SMASS  =  -3.00    Nose mass-parameter (am)
   estimated Nose-frequenzy (Omega)   =  0.10E-29 period in steps =****** mass=  -0.282E-26a.u.
   SCALEE = 1.0000    scale energy and forces
   NPACO  =    256;   APACO  = 16.0  distance and # of slots for P.C.
   PSTRESS=    0.0 pullay stress

  Mass of Ions in am
   POMASS =   7.01 16.00 32.07 55.85
  Ionic Valenz
   ZVAL   =   3.00  6.00  6.00 14.00
  Atomic Wigner-Seitz radii
   RWIGS  =  -1.00 -1.00 -1.00 -1.00
  virtual crystal weights 
   VCA    =   1.00  1.00  1.00  1.00
   NELECT =     736.0000    total number of electrons
   NUPDOWN=      -1.0000    fix difference up-down

 DOS related values:
   EMIN   =  10.00;   EMAX   =-10.00  energy-range for DOS
   EFERMI =   0.00
   ISMEAR =     0;   SIGMA  =   0.05  broadening in eV -4-tet -1-fermi 0-gaus

 Electronic relaxation 2 (details)
   IALGO  =     38    algorithm
   LDIAG  =      T    sub-space diagonalisation (order eigenvalues)
   LSUBROT=      F    optimize rotation matrix (better conditioning)
   TURBO    =      0    0=normal 1=particle mesh
   IRESTART =      0    0=no restart 2=restart with 2 vectors
   NREBOOT  =      0    no. of reboots
   NMIN     =      0    reboot dimension
   EREF     =   0.00    reference energy to select bands
   IMIX   =      4    mixing-type and parameters
     AMIX     =   0.40;   BMIX     =  1.00
     AMIX_MAG =   1.60;   BMIX_MAG =  1.00
     AMIN     =   0.10
     WC   =   100.;   INIMIX=   1;  MIXPRE=   1;  MAXMIX= -45

 Intra band minimization:
   WEIMIN = 0.0000     energy-eigenvalue tresh-hold
   EBREAK =  0.46E-09  absolut break condition
   DEPER  =   0.30     relativ break condition  

   TIME   =   0.40     timestep for ELM

  volume/ion in A,a.u.               =      14.32        96.62
  Fermi-wavevector in a.u.,A,eV,Ry     =   1.368520  2.586127 25.481613  1.872846
  Thomas-Fermi vector in A             =   2.494476
 
 Write flags
   LWAVE        =      F    write WAVECAR
   LDOWNSAMPLE  =      F    k-point downsampling of WAVECAR
   LCHARG       =      T    write CHGCAR
   LVTOT        =      F    write LOCPOT, total local potential
   LVHAR        =      F    write LOCPOT, Hartree potential only
   LELF         =      F    write electronic localiz. function (ELF)
   LORBIT       =      0    0 simple, 1 ext, 2 COOP (PROOUT), +10 PAW based schemes


 Dipole corrections
   LMONO  =      F    monopole corrections only (constant potential shift)
   LDIPOL =      F    correct potential (dipole corrections)
   IDIPOL =      0    1-x, 2-y, 3-z, 4-all directions 
   EPSILON=  1.0000000 bulk dielectric constant

 LDA+U is selected, type is set to LDAUTYPE =  2
   angular momentum for each species LDAUL =    -1   -1   -1    2
   U (eV)           for each species LDAUU =   0.0  0.0  0.0  4.0
   J (eV)           for each species LDAUJ =   0.0  0.0  0.0  0.0
 Exchange correlation treatment:
   GGA     =    PE    GGA type
   LEXCH   =     8    internal setting for exchange type
   VOSKOWN=      0    Vosko Wilk Nusair interpolation
   LHFCALC =     F    Hartree Fock is set to
   LHFONE  =     F    Hartree Fock one center treatment
   AEXX    =    0.0000 exact exchange contribution

 Linear response parameters
   LEPSILON=     F    determine dielectric tensor
   LRPA    =     F    only Hartree local field effects (RPA)
   LNABLA  =     F    use nabla operator in PAW spheres
   LVEL    =     F    velocity operator in full k-point grid
   LINTERFAST=   F  fast interpolation
   KINTER  =     0    interpolate to denser k-point grid
   CSHIFT  =0.1000    complex shift for real part using Kramers Kronig
   OMEGAMAX=  -1.0    maximum frequency
   DEG_THRESHOLD= 0.2000000E-02 threshold for treating states as degnerate
   RTIME   =   -0.100 relaxation time in fs
  (WPLASMAI=    0.000 imaginary part of plasma frequency in eV, 0.658/RTIME)
   DFIELD  = 0.0000000 0.0000000 0.0000000 field for delta impulse in time
 
 Orbital magnetization related:
   ORBITALMAG=     F  switch on orbital magnetization
   LCHIMAG   =     F  perturbation theory with respect to B field
   DQ        =  0.001000  dq finite difference perturbation B field
   LLRAUG    =     F  two centre corrections for induced B field



--------------------------------------------------------------------------------------------------------


 Static calculation
 charge density and potential will be updated during run
 spin polarized calculation
 Variant of blocked Davidson
 Davidson routine will perform the subspace rotation
 perform sub-space diagonalisation
    after iterative eigenvector-optimisation
 modified Broyden-mixing scheme, WC =      100.0
 initial mixing is a Kerker type mixing with AMIX =  0.4000 and BMIX =      1.0000
 Hartree-type preconditioning will be used
 using additional bands          170
 reciprocal scheme for non local part
 use partial core corrections
 calculate Harris-corrections to forces 
   (improved forces if not selfconsistent)
 use gradient corrections 
 use of overlap-Matrix (Vanderbilt PP)
 Gauss-broadening in eV      SIGMA  =   0.05


--------------------------------------------------------------------------------------------------------


  energy-cutoff  :      650.00
  volume of cell :     1259.94
      direct lattice vectors                 reciprocal lattice vectors
    11.112233740  0.000000000 -0.000290340     0.089991547  0.000000000  0.024487024
     0.000000000 11.117451940  0.000000000     0.000000000  0.089948669  0.000000000
    -2.775108980  0.000000000 10.198722210     0.000002562  0.000000000  0.098052196

  length of vectors
    11.112233744 11.117451940 10.569539468     0.093263567  0.089948669  0.098052196


 
 k-points in units of 2pi/SCALE and weight: # No comment                            
   0.00000000  0.00000000  0.00000000       0.037
   0.02999718  0.00000000  0.00816234       0.074
   0.00000000  0.02998289  0.00000000       0.074
   0.02999718  0.02998289  0.00816234       0.074
  -0.02999718  0.02998289 -0.00816234       0.074
   0.00000085  0.00000000  0.03268407       0.074
   0.02999804  0.00000000  0.04084641       0.074
  -0.02999633  0.00000000  0.02452172       0.074
   0.00000085  0.02998289  0.03268407       0.074
   0.02999804  0.02998289  0.04084641       0.074
  -0.02999633  0.02998289  0.02452172       0.074
   0.00000085 -0.02998289  0.03268407       0.074
   0.02999804 -0.02998289  0.04084641       0.074
  -0.02999633 -0.02998289  0.02452172       0.074
 
 k-points in reciprocal lattice and weights: # No comment                            
   0.00000000  0.00000000  0.00000000       0.037
   0.33333333  0.00000000  0.00000000       0.074
   0.00000000  0.33333333  0.00000000       0.074
   0.33333333  0.33333333  0.00000000       0.074
  -0.33333333  0.33333333 -0.00000000       0.074
   0.00000000  0.00000000  0.33333333       0.074
   0.33333333  0.00000000  0.33333333       0.074
  -0.33333333  0.00000000  0.33333333       0.074
   0.00000000  0.33333333  0.33333333       0.074
   0.33333333  0.33333333  0.33333333       0.074
  -0.33333333  0.33333333  0.33333333       0.074
   0.00000000 -0.33333333  0.33333333       0.074
   0.33333333 -0.33333333  0.33333333       0.074
  -0.33333333 -0.33333333  0.33333333       0.074
 
 position of ions in fractional coordinates (direct lattice) 
   0.28894969  0.46933910  0.15583616
   0.78894969  0.46933910  0.15583616
   0.28894969  0.96933910  0.15583616
   0.78894969  0.96933910  0.15583616
   0.04646972  0.21934976  0.18586770
   0.54646972  0.21934976  0.18586770
   0.04646972  0.71934976  0.18586770
   0.54646972  0.71934976  0.18586770
   0.45353028  0.46934976  0.81413230
   0.95353028  0.46934976  0.81413230
   0.45353028  0.96934976  0.81413230
   0.95353028  0.96934976  0.81413230
   0.21105031  0.21933910  0.84416384
   0.71105031  0.21933910  0.84416384
   0.21105031  0.71933910  0.84416384
   0.71105031  0.71933910  0.84416384
   0.07654971  0.09530995  0.80250593
   0.57654971  0.09530995  0.80250593
   0.07654971  0.59530995  0.80250593
   0.57654971  0.59530995  0.80250593
   0.32470466  0.34338175  0.80250383
   0.82470466  0.34338175  0.80250383
   0.32470466  0.84338175  0.80250383
   0.82470466  0.84338175  0.80250383
   0.17529534  0.09338175  0.19749617
   0.67529534  0.09338175  0.19749617
   0.17529534  0.59338175  0.19749617
   0.67529534  0.59338175  0.19749617
   0.42345029  0.34530995  0.19749407
   0.92345029  0.34530995  0.19749407
   0.42345029  0.84530995  0.19749407
   0.92345029  0.84530995  0.19749407
   0.21868463  0.34523395  0.37102476
   0.71868463  0.34523395  0.37102476
   0.21868463  0.84523395  0.37102476
   0.71868463  0.84523395  0.37102476
   0.46681660  0.09344897  0.37102399
   0.96681660  0.09344897  0.37102399
   0.46681660  0.59344897  0.37102399
   0.96681660  0.59344897  0.37102399
   0.03318340  0.34344897  0.62897601
   0.53318340  0.34344897  0.62897601
   0.03318340  0.84344897  0.62897601
   0.53318340  0.84344897  0.62897601
   0.28131537  0.09523395  0.62897524
   0.78131537  0.09523395  0.62897524
   0.28131537  0.59523395  0.62897524
   0.78131537  0.59523395  0.62897524
   0.12439279  0.34434306  0.99905801
   0.62439279  0.34434306  0.00000412
   0.12439279  0.84434306  0.00000412
   0.62439279  0.84434306  0.00000412
   0.37560721  0.09434306  0.99999588
   0.87560721  0.09434306  0.99999588
   0.37560721  0.59434306  0.99999588
   0.87560721  0.59434306  0.99999588
   0.03824426  0.10634799  0.60632306
   0.53824426  0.10634799  0.60632306
   0.03824426  0.60634799  0.60632306
   0.53824426  0.60634799  0.60632306
   0.26492712  0.33232651  0.60632763
   0.76492712  0.33232651  0.60632763
   0.26492712  0.83232651  0.60632763
   0.76492712  0.83232651  0.60632763
   0.23507288  0.08232651  0.39367237
   0.73507288  0.08232651  0.39367237
   0.23507288  0.58232651  0.39367237
   0.73507288  0.58232651  0.39367237
   0.46175574  0.35634799  0.39367694
   0.96175574  0.35634799  0.39367694
   0.46175574  0.85634799  0.39367694
   0.96175574  0.85634799  0.39367694
   0.03848398  0.46936404  0.15397331
   0.53848398  0.46936404  0.15397331
   0.03848398  0.96936404  0.15397331
   0.53848398  0.96936404  0.15397331
   0.28861657  0.21935690  0.15447525
   0.78861657  0.21935690  0.15447525
   0.28861657  0.71935690  0.15447525
   0.78861657  0.71935690  0.15447525
   0.21138343  0.46935690  0.84552475
   0.71138343  0.46935690  0.84552475
   0.21138343  0.96935690  0.84552475
   0.71138343  0.96935690  0.84552475
   0.46151602  0.21936404  0.84602669
   0.96151602  0.21936404  0.84602669
   0.46151602  0.71936404  0.84602669
   0.96151602  0.71936404  0.84602669
 
 position of ions in cartesian coordinates  (Angst):
   2.77841422  5.21785483  1.58924581
   8.33453109  5.21785483  1.58910064
   2.77841422 10.77658080  1.58924581
   8.33453109 10.77658080  1.58910064
   0.00057921  2.43861041  1.89559955
   5.55669608  2.43861041  1.89545438
   0.00057921  7.99733638  1.89559955
   5.55669608  7.99733638  1.89545438
   2.78042868  5.21797340  8.30297749
   8.33654555  5.21797340  8.30283232
   2.78042868 10.77669937  8.30297749
   8.33654555 10.77669937  8.30283232
   0.00259367  2.43849185  8.60933123
   5.55871054  2.43849185  8.60918606
   0.00259367  7.99721782  8.60933123
   5.55871054  7.99721782  8.60918606
  -1.37640314  1.05960384  8.18451283
   4.17971373  1.05960384  8.18436766
  -1.37640314  6.61832981  8.18451283
   4.17971373  6.61832981  8.18436766
   1.38115855  3.81753010  8.18441936
   6.93727542  3.81753010  8.18427419
   1.38115855  9.37625607  8.18441936
   6.93727542  9.37625607  8.18427419
   1.39984934  1.03816712  2.01415768
   6.95596621  1.03816712  2.01401251
   1.39984934  6.59689309  2.01415768
   6.95596621  6.59689309  2.01401251
   4.15741103  3.83896683  2.01406421
   9.71352790  3.83896683  2.01391904
   4.15741103  9.39769280  2.01406421
   9.71352790  9.39769280  2.01391904
   1.40044058  3.83812185  3.78391497
   6.95655745  3.83812185  3.78376980
   1.40044058  9.39684782  3.78391497
   6.95655745  9.39684782  3.78376980
   4.15774317  1.03891443  3.78383507
   9.71386004  1.03891443  3.78368990
   4.15774317  6.59764040  3.78383507
   9.71386004  6.59764040  3.78368990
  -1.37673528  3.81827742  6.41474197
   4.17938159  3.81827742  6.41459680
  -1.37673528  9.37700339  6.41474197
   4.17938159  9.37700339  6.41459680
   1.38056731  1.05875886  6.41466207
   6.93668418  1.05875886  6.41451690
   1.38056731  6.61748483  6.41466207
   6.93668418  6.61748483  6.41451690
  -1.39021308  3.82821742 10.18907895
   6.93838719  3.82821742 -0.00013927
   1.38227032  9.38694339  0.00000590
   6.93838719  9.38694339 -0.00013927
   1.39873757  1.04885444 10.19857114
   6.95485444  1.04885444 10.19842597
   1.39873757  6.60758041 10.19857114
   6.95485444  6.60758041 10.19842597
  -1.25763347  1.18231867  6.18370935
   4.29848340  1.18231867  6.18356418
  -1.25763347  6.74104464  6.18370935
   4.29848340  6.74104464  6.18356418
   1.26130689  3.69462400  6.18369015
   6.81742376  3.69462400  6.18354498
   1.26130689  9.25334997  6.18369015
   6.81742376  9.25334997  6.18354498
   1.51970100  0.91526102  4.01488689
   7.07581787  0.91526102  4.01474172
   1.51970100  6.47398699  4.01488689
   7.07581787  6.47398699  4.01474172
   4.03864136  3.96168165  4.01486769
   9.59475823  3.96168165  4.01472252
   4.03864136  9.52040762  4.01486769
   9.59475823  9.52040762  4.01472252
   0.00035027  5.21813216  1.57031984
   5.55646714  5.21813216  1.57017467
   0.00035027 10.77685813  1.57031984
   5.55646714 10.77685813  1.57017467
   2.77848919  2.43868979  1.57536637
   8.33460606  2.43868979  1.57522120
   2.77848919  7.99741576  1.57536637
   8.33460606  7.99741576  1.57522120
   0.00251870  5.21805278  8.62321067
   5.55863557  5.21805278  8.62306550
   0.00251870 10.77677875  8.62321067
   5.55863557 10.77677875  8.62306550
   2.78065762  2.43876917  8.62825720
   8.33677449  2.43876917  8.62811203
   2.78065762  7.99749514  8.62825720
   8.33677449  7.99749514  8.62811203
 


--------------------------------------------------------------------------------------------------------


 k-point  1 :   0.0000 0.0000 0.0000  plane waves:   47369
 k-point  2 :   0.3333 0.0000 0.0000  plane waves:   47373
 k-point  3 :   0.0000 0.3333 0.0000  plane waves:   47370
 k-point  4 :   0.3333 0.3333 0.0000  plane waves:   47404
 k-point  5 :  -0.3333 0.3333-0.0000  plane waves:   47404
 k-point  6 :   0.0000 0.0000 0.3333  plane waves:   47419
 k-point  7 :   0.3333 0.0000 0.3333  plane waves:   47399
 k-point  8 :  -0.3333 0.0000 0.3333  plane waves:   47417
 k-point  9 :   0.0000 0.3333 0.3333  plane waves:   47409
 k-point 10 :   0.3333 0.3333 0.3333  plane waves:   47422
 k-point 11 :  -0.3333 0.3333 0.3333  plane waves:   47440
 k-point 12 :   0.0000-0.3333 0.3333  plane waves:   47409
 k-point 13 :   0.3333-0.3333 0.3333  plane waves:   47422
 k-point 14 :  -0.3333-0.3333 0.3333  plane waves:   47440

 maximum and minimum number of plane-waves per node :      7942     7858

 maximum number of plane-waves:     47440
 maximum index in each direction: 
   IXMAX=   23   IYMAX=   23   IZMAX=   21
   IXMIN=  -23   IYMIN=  -23   IZMIN=  -22


 parallel 3D FFT for wavefunctions:
    minimum data exchange during FFTs selected (reduces bandwidth)
 parallel 3D FFT for charge:
    minimum data exchange during FFTs selected (reduces bandwidth)


 total amount of memory used by VASP MPI-rank0  1233264. kBytes
=======================================================================

   base      :      30000. kBytes
   nonl-proj :      75226. kBytes
   fftplans  :      85054. kBytes
   grid      :      64684. kBytes
   one-center:        466. kBytes
   wavefun   :     977834. kBytes
 
     INWAV:  cpu time    0.0000: real time    0.0000
 Broyden mixing: mesh for mixing (old mesh)
   NGX = 47   NGY = 47   NGZ = 43
  (NGX  =192   NGY  =192   NGZ  =180)
  gives a total of  94987 points

 initial charge density was supplied:
 number of electron     736.0000016 magnetization     127.9999885
 keeping initial charge density in first step


--------------------------------------------------------------------------------------------------------


 Maximum index for augmentation-charges        13241 (set IRDMAX)


--------------------------------------------------------------------------------------------------------


 First call to EWALD:  gamma=   0.164
 Maximum number of real-space cells 3x 3x 3
 Maximum number of reciprocal cells 3x 3x 3

    FEWALD:  cpu time    0.0041: real time    0.0041


--------------------------------------- Iteration      1(   1)  ---------------------------------------


    POTLOK:  cpu time    1.0382: real time    1.0690
    SETDIJ:  cpu time    2.2640: real time    2.2921
     EDDAV:  cpu time  314.4769: real time  317.8972
       DOS:  cpu time    0.0080: real time    0.0080
    --------------------------------------------
      LOOP:  cpu time  317.7871: real time  321.2664

 eigenvalue-minimisations  : 30944
 total energy-change (2. order) : 0.1040965E+05  (-0.4118847E+05)
 number of electron     736.0000016 magnetization     127.9999885
 augmentation part      736.0000016 magnetization     127.9999885

 Free energy of the ion-electron system (eV)
  ---------------------------------------------------
  alpha Z        PSCENC =      2314.49656628
  Ewald energy   TEWEN  =    -57723.00414294
  -Hartree energ DENC   =    -30348.91246430
  -exchange      EXHF   =         0.00000000
  -V(xc)+E(xc)   XCENC  =      3229.29988046
  PAW double counting   =     92679.89207989   -95535.38516353
  entropy T*S    EENTRO =        -0.01848171
  eigenvalues    EBANDS =       349.80594218
  atomic energy  EATOM  =     95443.47970955
  Solvation  Ediel_sol  =         0.00000000
  ---------------------------------------------------
  free energy    TOTEN  =     10409.65392587 eV

  energy without entropy =    10409.67240759  energy(sigma->0) =    10409.66316673


--------------------------------------------------------------------------------------------------------




--------------------------------------- Iteration      1(   2)  ---------------------------------------


     EDDAV:  cpu time  308.9420: real time  312.2967
       DOS:  cpu time    0.0084: real time    0.0084
    --------------------------------------------
      LOOP:  cpu time  308.9504: real time  312.3050

 eigenvalue-minimisations  : 30128
 total energy-change (2. order) :-0.9232166E+04  (-0.8658361E+04)
 number of electron     736.0000016 magnetization     127.9999885
 augmentation part      736.0000016 magnetization     127.9999885

 Free energy of the ion-electron system (eV)
  ---------------------------------------------------
  alpha Z        PSCENC =      2314.49656628
  Ewald energy   TEWEN  =    -57723.00414294
  -Hartree energ DENC   =    -30348.91246430
  -exchange      EXHF   =         0.00000000
  -V(xc)+E(xc)   XCENC  =      3229.29988046
  PAW double counting   =     92679.89207989   -95535.38516353
  entropy T*S    EENTRO =        -0.06584064
  eigenvalues    EBANDS =     -8882.31239230
  atomic energy  EATOM  =     95443.47970955
  Solvation  Ediel_sol  =         0.00000000
  ---------------------------------------------------
  free energy    TOTEN  =      1177.48823247 eV

  energy without entropy =     1177.55407311  energy(sigma->0) =     1177.52115279


--------------------------------------------------------------------------------------------------------




--------------------------------------- Iteration      1(   3)  ---------------------------------------


     EDDAV:  cpu time  326.2628: real time  329.1237
       DOS:  cpu time    0.0024: real time    0.0024
    --------------------------------------------
      LOOP:  cpu time  326.2652: real time  329.1261

 eigenvalue-minimisations  : 32352
 total energy-change (2. order) :-0.1485587E+04  (-0.1278944E+04)
 number of electron     736.0000016 magnetization     127.9999885
 augmentation part      736.0000016 magnetization     127.9999885

 Free energy of the ion-electron system (eV)
  ---------------------------------------------------
  alpha Z        PSCENC =      2314.49656628
  Ewald energy   TEWEN  =    -57723.00414294
  -Hartree energ DENC   =    -30348.91246430
  -exchange      EXHF   =         0.00000000
  -V(xc)+E(xc)   XCENC  =      3229.29988046
  PAW double counting   =     92679.89207989   -95535.38516353
  entropy T*S    EENTRO =        -0.00000000
  eigenvalues    EBANDS =    -10367.96542208
  atomic energy  EATOM  =     95443.47970955
  Solvation  Ediel_sol  =         0.00000000
  ---------------------------------------------------
  free energy    TOTEN  =      -308.09895667 eV

  energy without entropy =     -308.09895667  energy(sigma->0) =     -308.09895667


--------------------------------------------------------------------------------------------------------




--------------------------------------- Iteration      1(   4)  ---------------------------------------


     EDDAV:  cpu time  347.0946: real time  350.5572
       DOS:  cpu time    0.0025: real time    0.0025
    --------------------------------------------
      LOOP:  cpu time  347.0971: real time  350.5597

 eigenvalue-minimisations  : 35024
 total energy-change (2. order) :-0.1682017E+03  (-0.1654406E+03)
 number of electron     736.0000016 magnetization     127.9999885
 augmentation part      736.0000016 magnetization     127.9999885

 Free energy of the ion-electron system (eV)
  ---------------------------------------------------
  alpha Z        PSCENC =      2314.49656628
  Ewald energy   TEWEN  =    -57723.00414294
  -Hartree energ DENC   =    -30348.91246430
  -exchange      EXHF   =         0.00000000
  -V(xc)+E(xc)   XCENC  =      3229.29988046
  PAW double counting   =     92679.89207989   -95535.38516353
  entropy T*S    EENTRO =        -0.00000000
  eigenvalues    EBANDS =    -10536.16710333
  atomic energy  EATOM  =     95443.47970955
  Solvation  Ediel_sol  =         0.00000000
  ---------------------------------------------------
  free energy    TOTEN  =      -476.30063793 eV

  energy without entropy =     -476.30063793  energy(sigma->0) =     -476.30063793


--------------------------------------------------------------------------------------------------------




--------------------------------------- Iteration      1(   5)  ---------------------------------------


     EDDAV:  cpu time  461.3376: real time  465.9237
       DOS:  cpu time    0.0026: real time    0.0026
    CHARGE:  cpu time    9.4060: real time    9.4137
    MIXING:  cpu time    0.0281: real time    0.0281
    --------------------------------------------
      LOOP:  cpu time  470.7744: real time  475.3681

 eigenvalue-minimisations  : 49736
 total energy-change (2. order) :-0.1243273E+02  (-0.1230958E+02)
 number of electron     736.0000016 magnetization     127.9999932
 augmentation part      278.4630198 magnetization      84.1343062

 Broyden mixing:
  rms(total) = 0.21020E+00    rms(broyden)= 0.21004E+00
  rms(prec ) = 0.21363E+00
  weight for this iteration     100.00

 Free energy of the ion-electron system (eV)
  ---------------------------------------------------
  alpha Z        PSCENC =      2314.49656628
  Ewald energy   TEWEN  =    -57723.00414294
  -Hartree energ DENC   =    -30348.91246430
  -exchange      EXHF   =         0.00000000
  -V(xc)+E(xc)   XCENC  =      3229.29988046
  PAW double counting   =     92679.89207989   -95535.38516353
  entropy T*S    EENTRO =        -0.00000000
  eigenvalues    EBANDS =    -10548.59982866
  atomic energy  EATOM  =     95443.47970955
  Solvation  Ediel_sol  =         0.00000000
  ---------------------------------------------------
  free energy    TOTEN  =      -488.73336325 eV

  energy without entropy =     -488.73336325  energy(sigma->0) =     -488.73336325


--------------------------------------------------------------------------------------------------------




--------------------------------------- Iteration      1(   6)  ---------------------------------------


    POTLOK:  cpu time    1.0494: real time    1.0518
    SETDIJ:  cpu time    2.2760: real time    2.2785
     EDDAV:  cpu time  401.3983: real time  405.2321
       DOS:  cpu time    0.0027: real time    0.0027
    CHARGE:  cpu time    9.2386: real time    9.3488
    MIXING:  cpu time    0.0408: real time    0.0443
    --------------------------------------------
      LOOP:  cpu time  414.0057: real time  417.9582

 eigenvalue-minimisations  : 42096
 total energy-change (2. order) :-0.4670386E+00  (-0.4812111E+00)
 number of electron     736.0000016 magnetization     127.9999951
 augmentation part      277.9611263 magnetization      84.1629721

 Broyden mixing:
  rms(total) = 0.10487E+00    rms(broyden)= 0.10471E+00
  rms(prec ) = 0.10554E+00
  weight for this iteration     100.00

 eigenvalues of (default mixing * dielectric matrix)
  average eigenvalue GAMMA=   0.6560
  0.6560

 Free energy of the ion-electron system (eV)
  ---------------------------------------------------
  alpha Z        PSCENC =      2314.49656628
  Ewald energy   TEWEN  =    -57723.00414294
  -Hartree energ DENC   =    -30347.09212720
  -exchange      EXHF   =         0.00000000
  -V(xc)+E(xc)   XCENC  =      3228.99960853
  PAW double counting   =     92520.01764008   -95373.85627880
  entropy T*S    EENTRO =        -0.00000000
  eigenvalues    EBANDS =    -10552.24137730
  atomic energy  EATOM  =     95443.47970955
  Solvation  Ediel_sol  =         0.00000000
  ---------------------------------------------------
  free energy    TOTEN  =      -489.20040180 eV

  energy without entropy =     -489.20040180  energy(sigma->0) =     -489.20040180


--------------------------------------------------------------------------------------------------------




--------------------------------------- Iteration      1(   7)  ---------------------------------------


    POTLOK:  cpu time    1.0384: real time    1.0613
    SETDIJ:  cpu time    2.2732: real time    2.2982
     EDDAV:  cpu time  434.9914: real time  438.9949
       DOS:  cpu time    0.0026: real time    0.0025
    CHARGE:  cpu time    9.2117: real time    9.2589
    MIXING:  cpu time    0.0281: real time    0.0282
    --------------------------------------------
      LOOP:  cpu time  447.5453: real time  451.6440

 eigenvalue-minimisations  : 46400
 total energy-change (2. order) :-0.1674021E-01  (-0.1759419E-01)
 number of electron     736.0000016 magnetization     127.9999959
 augmentation part      277.8791348 magnetization      84.1548413

 Broyden mixing:
  rms(total) = 0.59543E-01    rms(broyden)= 0.59501E-01
  rms(prec ) = 0.60963E-01
  weight for this iteration     100.00

 eigenvalues of (default mixing * dielectric matrix)
  average eigenvalue GAMMA=   0.5754
  0.5754  0.5754

 Free energy of the ion-electron system (eV)
  ---------------------------------------------------
  alpha Z        PSCENC =      2314.49656628
  Ewald energy   TEWEN  =    -57723.00414294
  -Hartree energ DENC   =    -30348.02202036
  -exchange      EXHF   =         0.00000000
  -V(xc)+E(xc)   XCENC  =      3229.08472138
  PAW double counting   =     92579.03924193   -95433.45259378
  entropy T*S    EENTRO =        -0.00000000
  eigenvalues    EBANDS =    -10550.83862407
  atomic energy  EATOM  =     95443.47970955
  Solvation  Ediel_sol  =         0.00000000
  ---------------------------------------------------
  free energy    TOTEN  =      -489.21714201 eV

  energy without entropy =     -489.21714201  energy(sigma->0) =     -489.21714201


--------------------------------------------------------------------------------------------------------




--------------------------------------- Iteration      1(   8)  ---------------------------------------


    POTLOK:  cpu time    1.0461: real time    1.0487
    SETDIJ:  cpu time    2.2929: real time    2.2975
     EDDAV:  cpu time  404.8791: real time  409.4056
       DOS:  cpu time    0.0030: real time    0.0030
    CHARGE:  cpu time    9.3042: real time    9.4089
    MIXING:  cpu time    0.0309: real time    0.0317
    --------------------------------------------
      LOOP:  cpu time  417.5561: real time  422.1954

 eigenvalue-minimisations  : 42656
 total energy-change (2. order) : 0.5103680E-03  (-0.3390752E-03)
 number of electron     736.0000016 magnetization     127.9999963
 augmentation part      277.8713151 magnetization      84.1567838

 Broyden mixing:
  rms(total) = 0.53281E-01    rms(broyden)= 0.53277E-01
  rms(prec ) = 0.54520E-01
  weight for this iteration     100.00

 eigenvalues of (default mixing * dielectric matrix)
  average eigenvalue GAMMA=   0.5520
  0.6089  0.6089  0.4380

 Free energy of the ion-electron system (eV)
  ---------------------------------------------------
  alpha Z        PSCENC =      2314.49656628
  Ewald energy   TEWEN  =    -57723.00414294
  -Hartree energ DENC   =    -30347.98367774
  -exchange      EXHF   =         0.00000000
  -V(xc)+E(xc)   XCENC  =      3229.11394758
  PAW double counting   =     92592.75375023   -95447.30200683
  entropy T*S    EENTRO =        -0.00000000
  eigenvalues    EBANDS =    -10550.77077778
  atomic energy  EATOM  =     95443.47970955
  Solvation  Ediel_sol  =         0.00000000
  ---------------------------------------------------
  free energy    TOTEN  =      -489.21663164 eV

  energy without entropy =     -489.21663164  energy(sigma->0) =     -489.21663164


--------------------------------------------------------------------------------------------------------




--------------------------------------- Iteration      1(   9)  ---------------------------------------


    POTLOK:  cpu time    1.0348: real time    1.0596
    SETDIJ:  cpu time    2.2709: real time    2.2943
     EDDAV:  cpu time  445.1971: real time  449.3755
       DOS:  cpu time    0.0029: real time    0.0029
    CHARGE:  cpu time    9.3631: real time    9.3743
    MIXING:  cpu time    0.0286: real time    0.0286
    --------------------------------------------
      LOOP:  cpu time  457.8974: real time  462.1351

 eigenvalue-minimisations  : 47936
 total energy-change (2. order) : 0.4010892E-03  (-0.2135637E-04)
 number of electron     736.0000016 magnetization     127.9999975
 augmentation part      277.8735002 magnetization      84.1568087

 Broyden mixing:
  rms(total) = 0.47364E-01    rms(broyden)= 0.47363E-01
  rms(prec ) = 0.48435E-01
  weight for this iteration     100.00

 eigenvalues of (default mixing * dielectric matrix)
  average eigenvalue GAMMA=   0.6651
  0.8189  0.8189  0.5113  0.5113

 Free energy of the ion-electron system (eV)
  ---------------------------------------------------
  alpha Z        PSCENC =      2314.49656628
  Ewald energy   TEWEN  =    -57723.00414294
  -Hartree energ DENC   =    -30348.05483591
  -exchange      EXHF   =         0.00000000
  -V(xc)+E(xc)   XCENC  =      3229.13560127
  PAW double counting   =     92600.33223432   -95454.98068140
  entropy T*S    EENTRO =        -0.00000000
  eigenvalues    EBANDS =    -10550.62068173
  atomic energy  EATOM  =     95443.47970955
  Solvation  Ediel_sol  =         0.00000000
  ---------------------------------------------------
  free energy    TOTEN  =      -489.21623055 eV

  energy without entropy =     -489.21623055  energy(sigma->0) =     -489.21623055


--------------------------------------------------------------------------------------------------------




--------------------------------------- Iteration      1(  10)  ---------------------------------------


    POTLOK:  cpu time    1.0452: real time    1.0501
    SETDIJ:  cpu time    2.2798: real time    2.2810
     EDDAV:  cpu time  447.5598: real time  452.2811
       DOS:  cpu time    0.0030: real time    0.0062
    CHARGE:  cpu time    9.3075: real time    9.3764
    MIXING:  cpu time    0.0390: real time    0.0485
    --------------------------------------------
      LOOP:  cpu time  460.2343: real time  465.0432

 eigenvalue-minimisations  : 47792
 total energy-change (2. order) : 0.7426194E-03  (-0.3561071E-04)
 number of electron     736.0000016 magnetization     127.9999992
 augmentation part      277.8813532 magnetization      84.1575670

 Broyden mixing:
  rms(total) = 0.32235E-01    rms(broyden)= 0.32235E-01
  rms(prec ) = 0.32824E-01
  weight for this iteration     100.00

 eigenvalues of (default mixing * dielectric matrix)
  average eigenvalue GAMMA=   0.8744
  1.3616  1.3616  0.5906  0.5906  0.4674

 Free energy of the ion-electron system (eV)
  ---------------------------------------------------
  alpha Z        PSCENC =      2314.49656628
  Ewald energy   TEWEN  =    -57723.00414294
  -Hartree energ DENC   =    -30348.35508740
  -exchange      EXHF   =         0.00000000
  -V(xc)+E(xc)   XCENC  =      3229.19758995
  PAW double counting   =     92622.87815026   -95477.82188597
  entropy T*S    EENTRO =        -0.00000000
  eigenvalues    EBANDS =    -10550.08638766
  atomic energy  EATOM  =     95443.47970955
  Solvation  Ediel_sol  =         0.00000000
  ---------------------------------------------------
  free energy    TOTEN  =      -489.21548793 eV

  energy without entropy =     -489.21548793  energy(sigma->0) =     -489.21548793


--------------------------------------------------------------------------------------------------------




--------------------------------------- Iteration      1(  11)  ---------------------------------------


    POTLOK:  cpu time    1.0351: real time    1.0559
    SETDIJ:  cpu time    2.2647: real time    2.3042
     EDDAV:  cpu time  397.6608: real time  401.8545
       DOS:  cpu time    0.0027: real time    0.0027
    CHARGE:  cpu time    9.2392: real time    9.2904
    MIXING:  cpu time    0.0346: real time    0.0371
    --------------------------------------------
      LOOP:  cpu time  410.2370: real time  414.5448

 eigenvalue-minimisations  : 41456
 total energy-change (2. order) : 0.4122198E-03  (-0.4817471E-04)
 number of electron     736.0000016 magnetization     127.9999996
 augmentation part      277.8892539 magnetization      84.1582248

 Broyden mixing:
  rms(total) = 0.13643E-01    rms(broyden)= 0.13641E-01
  rms(prec ) = 0.13733E-01
  weight for this iteration     100.00

 eigenvalues of (default mixing * dielectric matrix)
  average eigenvalue GAMMA=   0.8762
  1.4514  1.4514  0.6569  0.6569  0.5203  0.5203

 Free energy of the ion-electron system (eV)
  ---------------------------------------------------
  alpha Z        PSCENC =      2314.49656628
  Ewald energy   TEWEN  =    -57723.00414294
  -Hartree energ DENC   =    -30348.71368650
  -exchange      EXHF   =         0.00000000
  -V(xc)+E(xc)   XCENC  =      3229.27084606
  PAW double counting   =     92653.17411514   -95508.48043689
  entropy T*S    EENTRO =        -0.00000000
  eigenvalues    EBANDS =    -10549.43804641
  atomic energy  EATOM  =     95443.47970955
  Solvation  Ediel_sol  =         0.00000000
  ---------------------------------------------------
  free energy    TOTEN  =      -489.21507571 eV

  energy without entropy =     -489.21507571  energy(sigma->0) =     -489.21507571


--------------------------------------------------------------------------------------------------------




--------------------------------------- Iteration      1(  12)  ---------------------------------------


    POTLOK:  cpu time    1.0304: real time    1.0510
    SETDIJ:  cpu time    2.2625: real time    2.2995
     EDDAV:  cpu time  378.4213: real time  382.4298
       DOS:  cpu time    0.0025: real time    0.0025
    CHARGE:  cpu time    9.0700: real time    9.2059
    MIXING:  cpu time    0.0337: real time    0.0341
    --------------------------------------------
      LOOP:  cpu time  390.8205: real time  395.0229

 eigenvalue-minimisations  : 39200
 total energy-change (2. order) : 0.5275186E-05  (-0.1433907E-04)
 number of electron     736.0000016 magnetization     127.9999997
 augmentation part      277.8909336 magnetization      84.1581830

 Broyden mixing:
  rms(total) = 0.94004E-02    rms(broyden)= 0.93996E-02
  rms(prec ) = 0.94363E-02
  weight for this iteration     100.00

 eigenvalues of (default mixing * dielectric matrix)
  average eigenvalue GAMMA=   0.9367
  1.6048  1.6048  0.8581  0.8581  0.5681  0.5681  0.4949

 Free energy of the ion-electron system (eV)
  ---------------------------------------------------
  alpha Z        PSCENC =      2314.49656628
  Ewald energy   TEWEN  =    -57723.00414294
  -Hartree energ DENC   =    -30348.78014977
  -exchange      EXHF   =         0.00000000
  -V(xc)+E(xc)   XCENC  =      3229.28341695
  PAW double counting   =     92660.88906346   -95516.26049298
  entropy T*S    EENTRO =        -0.00000000
  eigenvalues    EBANDS =    -10549.31904100
  atomic energy  EATOM  =     95443.47970955
  Solvation  Ediel_sol  =         0.00000000
  ---------------------------------------------------
  free energy    TOTEN  =      -489.21507044 eV

  energy without entropy =     -489.21507044  energy(sigma->0) =     -489.21507044


--------------------------------------------------------------------------------------------------------




--------------------------------------- Iteration      1(  13)  ---------------------------------------


    POTLOK:  cpu time    1.0407: real time    1.0532
    SETDIJ:  cpu time    2.2596: real time    2.2955
     EDDAV:  cpu time  368.4955: real time  372.3797
       DOS:  cpu time    0.0026: real time    0.0026
    CHARGE:  cpu time    9.1377: real time    9.3398
    MIXING:  cpu time    0.0360: real time    0.0362
    --------------------------------------------
      LOOP:  cpu time  380.9721: real time  385.1069

 eigenvalue-minimisations  : 37808
 total energy-change (2. order) :-0.6519462E-05  (-0.1616785E-05)
 number of electron     736.0000016 magnetization     128.0000002
 augmentation part      277.8922015 magnetization      84.1581486

 Broyden mixing:
  rms(total) = 0.81644E-02    rms(broyden)= 0.81636E-02
  rms(prec ) = 0.82040E-02
  weight for this iteration     100.00

 eigenvalues of (default mixing * dielectric matrix)
  average eigenvalue GAMMA=   1.1013
  2.2900  2.2900  0.9825  0.9825  0.6313  0.6313  0.5015  0.5015

 Free energy of the ion-electron system (eV)
  ---------------------------------------------------
  alpha Z        PSCENC =      2314.49656628
  Ewald energy   TEWEN  =    -57723.00414294
  -Hartree energ DENC   =    -30348.78788702
  -exchange      EXHF   =         0.00000000
  -V(xc)+E(xc)   XCENC  =      3229.28365541
  PAW double counting   =     92663.55410382   -95518.92936022
  entropy T*S    EENTRO =        -0.00000000
  eigenvalues    EBANDS =    -10549.30772184
  atomic energy  EATOM  =     95443.47970955
  Solvation  Ediel_sol  =         0.00000000
  ---------------------------------------------------
  free energy    TOTEN  =      -489.21507696 eV

  energy without entropy =     -489.21507696  energy(sigma->0) =     -489.21507696


--------------------------------------------------------------------------------------------------------




--------------------------------------- Iteration      1(  14)  ---------------------------------------


    POTLOK:  cpu time    1.0406: real time    1.0876
    SETDIJ:  cpu time    2.2769: real time    2.2924
     EDDAV:  cpu time  248.4942: real time  250.6840
       DOS:  cpu time    0.0024: real time    0.0024
    --------------------------------------------
      LOOP:  cpu time  251.8141: real time  254.0664

 eigenvalue-minimisations  : 22264
 total energy-change (2. order) : 0.3778696E-06  (-0.1970992E-06)
 number of electron     736.0000016 magnetization     128.0000002
 augmentation part      277.8922015 magnetization      84.1581486

 Free energy of the ion-electron system (eV)
  ---------------------------------------------------
  alpha Z        PSCENC =      2314.49656628
  Ewald energy   TEWEN  =    -57723.00414294
  -Hartree energ DENC   =    -30348.85527092
  -exchange      EXHF   =         0.00000000
  -V(xc)+E(xc)   XCENC  =      3229.29177136
  PAW double counting   =     92673.34245038   -95528.77109017
  entropy T*S    EENTRO =        -0.00000000
  eigenvalues    EBANDS =    -10549.19507011
  atomic energy  EATOM  =     95443.47970955
  Solvation  Ediel_sol  =         0.00000000
  ---------------------------------------------------
  free energy    TOTEN  =      -489.21507658 eV

  energy without entropy =     -489.21507658  energy(sigma->0) =     -489.21507658


--------------------------------------------------------------------------------------------------------




 average (electrostatic) potential at core
  the test charge radii are     0.7079  0.7215  0.9698  0.9500
  (the norm of the test charge is              1.0000)
       1 -58.9554       2 -58.9520       3 -58.9519       4 -58.9514       5 -58.9554
       6 -58.9506       7 -58.9512       8 -58.9502       9 -58.9498      10 -58.9468
      11 -58.9502      12 -58.9500      13 -58.9449      14 -58.9508      15 -58.9507
      16 -58.9513      17 -69.8139      18 -69.8162      19 -69.8138      20 -69.8163
      21 -69.8133      22 -69.8147      23 -69.8162      24 -69.8163      25 -69.8188
      26 -69.8166      27 -69.8190      28 -69.8166      29 -69.8182      30 -69.8194
      31 -69.8165      32 -69.8166      33 -85.5821      34 -85.5797      35 -85.5800
      36 -85.5796      37 -85.5801      38 -85.5797      39 -85.5800      40 -85.5800
      41 -85.5771      42 -85.5795      43 -85.5792      44 -85.5796      45 -85.5793
      46 -85.5791      47 -85.5792      48 -85.5793      49 -85.6384      50 -85.6385
      51 -85.6384      52 -85.6384      53 -85.6382      54 -85.6386      55 -85.6377
      56 -85.6392      57 -78.5732      58 -78.5741      59 -78.5734      60 -78.5741
      61 -78.5739      62 -78.5734      63 -78.5740      64 -78.5739      65 -78.5750
      66 -78.5741      67 -78.5750      68 -78.5743      69 -78.5750      70 -78.5743
      71 -78.5744      72 -78.5742      73 -78.5877      74 -78.5823      75 -78.5826
      76 -78.5821      77 -78.5952      78 -78.5922      79 -78.5921      80 -78.5919
      81 -78.5860      82 -78.5913      83 -78.5910      84 -78.5915      85 -78.5813
      86 -78.5784      87 -78.5817      88 -78.5816
 
 
 
 E-fermi :   5.2126     XC(G=0): -10.4849     alpha+bet :-11.8156


 spin component 1

 k-point     1 :       0.0000    0.0000    0.0000
  band No.  band energies     occupation 
      1     -51.0561      1.00000
      2     -51.0556      1.00000
      3     -51.0544      1.00000
      4     -51.0543      1.00000
      5     -51.0542      1.00000
      6     -51.0541      1.00000
      7     -51.0537      1.00000
      8     -51.0535      1.00000
      9     -51.0529      1.00000
     10     -51.0526      1.00000
     11     -51.0524      1.00000
     12     -51.0522      1.00000
     13     -51.0520      1.00000
     14     -51.0516      1.00000
     15     -51.0509      1.00000
     16     -51.0502      1.00000
     17     -51.0473      1.00000
     18     -51.0457      1.00000
     19     -51.0445      1.00000
     20     -51.0443      1.00000
     21     -51.0440      1.00000
     22     -51.0440      1.00000
     23     -51.0438      1.00000
     24     -51.0433      1.00000
     25     -51.0401      1.00000
     26     -51.0398      1.00000
     27     -51.0395      1.00000
     28     -51.0392      1.00000
     29     -51.0392      1.00000
     30     -51.0388      1.00000
     31     -51.0384      1.00000
     32     -51.0356      1.00000
     33     -49.7036      1.00000
     34     -49.7022      1.00000
     35     -49.7021      1.00000
     36     -49.7019      1.00000
     37     -49.7015      1.00000
     38     -49.7014      1.00000
     39     -49.7010      1.00000
     40     -49.6982      1.00000
     41     -49.6976      1.00000
     42     -49.6946      1.00000
     43     -49.6944      1.00000
     44     -49.6941      1.00000
     45     -49.6937      1.00000
     46     -49.6936      1.00000
     47     -49.6934      1.00000
     48     -49.6921      1.00000
     49     -49.5986      1.00000
     50     -49.5981      1.00000
     51     -49.5976      1.00000
     52     -49.5975      1.00000
     53     -49.5974      1.00000
     54     -49.5973      1.00000
     55     -49.5970      1.00000
     56     -49.5966      1.00000
     57     -49.5964      1.00000
     58     -49.5962      1.00000
     59     -49.5961      1.00000
     60     -49.5961      1.00000
     61     -49.5960      1.00000
     62     -49.5958      1.00000
     63     -49.5956      1.00000
     64     -49.5954      1.00000
     65     -49.5674      1.00000
     66     -49.5668      1.00000
     67     -49.5664      1.00000
     68     -49.5662      1.00000
     69     -49.5660      1.00000
     70     -49.5660      1.00000
     71     -49.5656      1.00000
     72     -49.5650      1.00000
     73     -49.5648      1.00000
     74     -49.5648      1.00000
     75     -49.5644      1.00000
     76     -49.5643      1.00000
     77     -49.5641      1.00000
     78     -49.5638      1.00000
     79     -49.5638      1.00000
     80     -49.5636      1.00000
     81     -49.5591      1.00000
     82     -49.5548      1.00000
     83     -49.5546      1.00000
     84     -49.5545      1.00000
     85     -49.5541      1.00000
     86     -49.5540      1.00000
     87     -49.5536      1.00000
     88     -49.5473      1.00000
     89     -49.5464      1.00000
     90     -49.5400      1.00000
     91     -49.5397      1.00000
     92     -49.5395      1.00000
     93     -49.5392      1.00000
     94     -49.5391      1.00000
     95     -49.5388      1.00000
     96     -49.5345      1.00000
     97     -39.8728      1.00000
     98     -39.8721      1.00000
     99     -39.8689      1.00000
    100     -39.8687      1.00000
    101     -39.8685      1.00000
    102     -39.8683      1.00000
    103     -39.8682      1.00000
    104     -39.8678      1.00000
    105     -39.8678      1.00000
    106     -39.8675      1.00000
    107     -39.8674      1.00000
    108     -39.8674      1.00000
    109     -39.8673      1.00000
    110     -39.8671      1.00000
    111     -39.8642      1.00000
    112     -39.8616      1.00000
    113     -13.2261      1.00000
    114     -13.2236      1.00000
    115     -13.2105      1.00000
    116     -13.1835      1.00000
    117     -13.1012      1.00000
    118     -13.0995      1.00000
    119     -13.0986      1.00000
    120     -13.0932      1.00000
    121     -13.0860      1.00000
    122     -13.0804      1.00000
    123     -13.0796      1.00000
    124     -13.0777      1.00000
    125     -12.9883      1.00000
    126     -12.9773      1.00000
    127     -12.9431      1.00000
    128     -12.9407      1.00000
    129      -7.6453      1.00000
    130      -7.4067      1.00000
    131      -7.3261      1.00000
    132      -7.3260      1.00000
    133      -7.3094      1.00000
    134      -7.3090      1.00000
    135      -7.3086      1.00000
    136      -7.3073      1.00000
    137      -7.1692      1.00000
    138      -7.1575      1.00000
    139      -7.1238      1.00000
    140      -7.1237      1.00000
    141      -7.0365      1.00000
    142      -7.0218      1.00000
    143      -7.0023      1.00000
    144      -7.0017      1.00000
    145      -6.9412      1.00000
    146      -6.9405      1.00000
    147      -6.8872      1.00000
    148      -6.8871      1.00000
    149      -6.8653      1.00000
    150      -6.8618      1.00000
    151      -6.8345      1.00000
    152      -6.8037      1.00000
    153      -1.9367      1.00000
    154      -1.9344      1.00000
    155      -1.9106      1.00000
    156      -1.8935      1.00000
    157      -1.6666      1.00000
    158      -1.6663      1.00000
    159      -1.6588      1.00000
    160      -1.6572      1.00000
    161      -1.5998      1.00000
    162      -1.5979      1.00000
    163      -1.5864      1.00000
    164      -1.5861      1.00000
    165      -1.2983      1.00000
    166      -1.1748      1.00000
    167      -1.1746      1.00000
    168      -1.1135      1.00000
    169      -1.1130      1.00000
    170      -1.1072      1.00000
    171      -1.0494      1.00000
    172      -0.9810      1.00000
    173      -0.9647      1.00000
    174      -0.9596      1.00000
    175      -0.9578      1.00000
    176      -0.9576      1.00000
    177      -0.9470      1.00000
    178      -0.9452      1.00000
    179      -0.9228      1.00000
    180      -0.8723      1.00000
    181      -0.8702      1.00000
    182      -0.8036      1.00000
    183      -0.8035      1.00000
    184      -0.8017      1.00000
    185      -0.7753      1.00000
    186      -0.7742      1.00000
    187      -0.7740      1.00000
    188      -0.7609      1.00000
    189      -0.7167      1.00000
    190      -0.7166      1.00000
    191      -0.7068      1.00000
    192      -0.7049      1.00000
    193      -0.6993      1.00000
    194      -0.6989      1.00000
    195      -0.6088      1.00000
    196      -0.6086      1.00000
    197      -0.5616      1.00000
    198      -0.5614      1.00000
    199      -0.5495      1.00000
    200      -0.5481      1.00000
    201      -0.4083      1.00000
    202      -0.4080      1.00000
    203      -0.3574      1.00000
    204      -0.3479      1.00000
    205      -0.3295      1.00000
    206      -0.3293      1.00000
    207      -0.2985      1.00000
    208      -0.2984      1.00000
    209      -0.2814      1.00000
    210      -0.2693      1.00000
    211      -0.2628      1.00000
    212      -0.2559      1.00000
    213      -0.2550      1.00000
    214      -0.2092      1.00000
    215      -0.2089      1.00000
    216      -0.1886      1.00000
    217      -0.1872      1.00000
    218      -0.1863      1.00000
    219      -0.1759      1.00000
    220      -0.1579      1.00000
    221      -0.1259      1.00000
    222      -0.1250      1.00000
    223      -0.1097      1.00000
    224      -0.0709      1.00000
    225      -0.0699      1.00000
    226      -0.0605      1.00000
    227      -0.0434      1.00000
    228      -0.0175      1.00000
    229      -0.0174      1.00000
    230      -0.0113      1.00000
    231       0.0013      1.00000
    232       0.0021      1.00000
    233       0.0461      1.00000
    234       0.0491      1.00000
    235       0.0499      1.00000
    236       0.0913      1.00000
    237       0.0934      1.00000
    238       0.1183      1.00000
    239       0.1187      1.00000
    240       0.1576      1.00000
    241       0.1626      1.00000
    242       0.1769      1.00000
    243       0.1792      1.00000
    244       0.1820      1.00000
    245       0.1820      1.00000
    246       0.1855      1.00000
    247       0.1892      1.00000
    248       0.1933      1.00000
    249       0.1939      1.00000
    250       0.2006      1.00000
    251       0.2015      1.00000
    252       0.2388      1.00000
    253       0.2511      1.00000
    254       0.2565      1.00000
    255       0.2573      1.00000
    256       0.2765      1.00000
    257       0.3373      1.00000
    258       0.3474      1.00000
    259       0.3587      1.00000
    260       0.3590      1.00000
    261       0.3600      1.00000
    262       0.3606      1.00000
    263       0.3881      1.00000
    264       0.4018      1.00000
    265       0.4526      1.00000
    266       0.4527      1.00000
    267       0.5789      1.00000
    268       0.5789      1.00000
    269       0.5844      1.00000
    270       0.6017      1.00000
    271       0.6023      1.00000
    272       0.6063      1.00000
    273       0.6079      1.00000
    274       0.6402      1.00000
    275       0.6511      1.00000
    276       0.6514      1.00000
    277       0.6616      1.00000
    278       0.6628      1.00000
    279       0.6655      1.00000
    280       0.6732      1.00000
    281       0.6748      1.00000
    282       0.6749      1.00000
    283       0.6964      1.00000
    284       0.7228      1.00000
    285       0.7833      1.00000
    286       0.8196      1.00000
    287       0.8295      1.00000
    288       0.8321      1.00000
    289       0.8322      1.00000
    290       0.8608      1.00000
    291       0.8617      1.00000
    292       0.9093      1.00000
    293       0.9405      1.00000
    294       0.9478      1.00000
    295       0.9486      1.00000
    296       0.9831      1.00000
    297       1.0258      1.00000
    298       1.0704      1.00000
    299       1.2693      1.00000
    300       1.2981      1.00000
    301       1.2982      1.00000
    302       1.3116      1.00000
    303       1.3328      1.00000
    304       1.3334      1.00000
    305       1.3378      1.00000
    306       1.3845      1.00000
    307       1.4051      1.00000
    308       1.4283      1.00000
    309       1.4669      1.00000
    310       1.4679      1.00000
    311       1.4681      1.00000
    312       1.4815      1.00000
    313       1.5104      1.00000
    314       1.5114      1.00000
    315       1.5407      1.00000
    316       1.5614      1.00000
    317       1.5769      1.00000
    318       1.6463      1.00000
    319       1.6554      1.00000
    320       1.7561      1.00000
    321       1.7564      1.00000
    322       1.7630      1.00000
    323       1.7784      1.00000
    324       1.8020      1.00000
    325       1.8039      1.00000
    326       1.8108      1.00000
    327       1.8232      1.00000
    328       1.8359      1.00000
    329       1.8371      1.00000
    330       1.8460      1.00000
    331       1.8469      1.00000
    332       1.8783      1.00000
    333       1.8896      1.00000
    334       1.9471      1.00000
    335       1.9933      1.00000
    336       1.9936      1.00000
    337       2.0060      1.00000
    338       2.0068      1.00000
    339       2.0100      1.00000
    340       2.0186      1.00000
    341       2.0200      1.00000
    342       2.0204      1.00000
    343       2.0396      1.00000
    344       2.0463      1.00000
    345       2.0473      1.00000
    346       2.0573      1.00000
    347       2.0686      1.00000
    348       2.0691      1.00000
    349       2.0919      1.00000
    350       2.1128      1.00000
    351       2.1896      1.00000
    352       2.1919      1.00000
    353       2.2470      1.00000
    354       2.2471      1.00000
    355       2.2705      1.00000
    356       2.2731      1.00000
    357       2.2846      1.00000
    358       2.4278      1.00000
    359       2.4661      1.00000
    360       2.4668      1.00000
    361       2.4776      1.00000
    362       2.5036      1.00000
    363       2.5275      1.00000
    364       2.5542      1.00000
    365       2.5922      1.00000
    366       2.6266      1.00000
    367       2.6269      1.00000
    368       2.6561      1.00000
    369       2.7378      1.00000
    370       2.7391      1.00000
    371       2.7605      1.00000
    372       2.7615      1.00000
    373       2.8339      1.00000
    374       2.8728      1.00000
    375       2.9263      1.00000
    376       2.9344      1.00000
    377       2.9344      1.00000
    378       2.9690      1.00000
    379       3.0276      1.00000
    380       3.0276      1.00000
    381       3.0616      1.00000
    382       3.0969      1.00000
    383       3.3076      1.00000
    384       3.3106      1.00000
    385       3.3480      1.00000
    386       3.3757      1.00000
    387       3.4211      1.00000
    388       3.4222      1.00000
    389       3.4405      1.00000
    390       3.4584      1.00000
    391       3.4587      1.00000
    392       3.5316      1.00000
    393       3.7480      1.00000
    394       3.8084      1.00000
    395       3.8092      1.00000
    396       3.8152      1.00000
    397       3.8152      1.00000
    398       3.8824      1.00000
    399       3.8827      1.00000
    400       3.9315      1.00000
    401       3.9359      1.00000
    402       3.9406      1.00000
    403       3.9412      1.00000
    404       4.0380      1.00000
    405       4.0403      1.00000
    406       4.0703      1.00000
    407       4.1386      1.00000
    408       4.1491      1.00000
    409       4.1513      1.00000
    410       4.3149      1.00000
    411       4.3179      1.00000
    412       4.3380      1.00000
    413       4.3584      1.00000
    414       4.3586      1.00000
    415       4.4289      1.00000
    416       4.4441      1.00000
    417       4.4466      1.00000
    418       4.4539      1.00000
    419       4.4564      1.00000
    420       4.4566      1.00000
    421       4.6362      1.00000
    422       4.6367      1.00000
    423       4.7321      1.00000
    424       4.7327      1.00000
    425       4.7640      1.00000
    426       4.7641      1.00000
    427       4.7692      1.00000
    428       4.7694      1.00000
    429       4.8101      1.00000
    430       4.8527      1.00000
    431       4.8543      1.00000
    432       4.8577      1.00000
    433       7.3436      0.00000
    434       8.1284      0.00000
    435       8.4449      0.00000
    436       8.6416      0.00000
    437       8.6436      0.00000
    438       8.8581      0.00000
    439       9.0845      0.00000
    440       9.0846      0.00000
    441       9.2617      0.00000
    442       9.2728      0.00000
    443       9.2889      0.00000
    444       9.2894      0.00000
    445       9.7271      0.00000
    446       9.7718      0.00000
    447       9.7721      0.00000
    448       9.7896      0.00000
    449       9.8546      0.00000
    450       9.8547      0.00000
    451       9.8591      0.00000
    452       9.8788      0.00000
    453       9.8896      0.00000
    454      10.0610      0.00000
    455      10.0822      0.00000
    456      10.1361      0.00000
    457      10.1364      0.00000
    458      10.3060      0.00000
    459      10.3062      0.00000
    460      10.4166      0.00000
    461      10.5266      0.00000
    462      10.5707      0.00000
    463      10.5716      0.00000
    464      10.5723      0.00000
    465      10.5783      0.00000
    466      10.5787      0.00000
    467      10.6757      0.00000
    468      10.9759      0.00000
    469      11.0191      0.00000
    470      11.0193      0.00000
    471      11.0406      0.00000
    472      11.0407      0.00000
    473      11.0769      0.00000
    474      11.1286      0.00000
    475      11.1782      0.00000
    476      11.1887      0.00000
    477      11.2284      0.00000
    478      11.2492      0.00000
    479      11.2495      0.00000
    480      11.2904      0.00000
    481      11.3069      0.00000
    482      11.4171      0.00000
    483      11.4179      0.00000
    484      11.4588      0.00000
    485      11.5211      0.00000
    486      11.5213      0.00000
    487      11.5304      0.00000
    488      11.5775      0.00000
    489      11.6802      0.00000
    490      11.6804      0.00000
    491      11.7971      0.00000
    492      11.7973      0.00000
    493      11.8155      0.00000
    494      11.8157      0.00000
    495      11.8821      0.00000
    496      11.9401      0.00000
    497      11.9750      0.00000
    498      11.9770      0.00000
    499      11.9827      0.00000
    500      12.0280      0.00000
    501      12.0285      0.00000
    502      12.0571      0.00000
    503      12.1625      0.00000
    504      12.2427      0.00000
    505      12.2572      0.00000
    506      12.2576      0.00000
    507      12.3152      0.00000
    508      12.3155      0.00000
    509      12.3230      0.00000
    510      12.3493      0.00000
    511      12.4608      0.00000
    512      12.4794      0.00000
    513      12.5168      0.00000
    514      12.5174      0.00000
    515      12.6142      0.00000
    516      12.6146      0.00000
    517      12.6606      0.00000
    518      12.6628      0.00000
    519      12.6637      0.00000
    520      12.6896      0.00000
    521      12.7470      0.00000
    522      12.8301      0.00000
    523      12.8717      0.00000
    524      12.8725      0.00000
    525      12.8737      0.00000
    526      13.1203      0.00000
    527      13.1206      0.00000
    528      13.2008      0.00000
    529      13.3819      0.00000
    530      13.4093      0.00000
    531      13.4118      0.00000
    532      13.4342      0.00000
    533      13.4384      0.00000
    534      13.4561      0.00000
    535      13.4957      0.00000
    536      13.5127      0.00000
    537      13.5452      0.00000
    538      13.5537      0.00000

 k-point     2 :       0.3333    0.0000    0.0000
  band No.  band energies     occupation 
      1     -51.0561      1.00000
      2     -51.0555      1.00000
      3     -51.0546      1.00000
      4     -51.0545      1.00000
      5     -51.0543      1.00000
      6     -51.0541      1.00000
      7     -51.0536      1.00000
      8     -51.0533      1.00000
      9     -51.0531      1.00000
     10     -51.0526      1.00000
     11     -51.0525      1.00000
     12     -51.0519      1.00000
     13     -51.0517      1.00000
     14     -51.0514      1.00000
     15     -51.0511      1.00000
     16     -51.0506      1.00000
     17     -51.0473      1.00000
     18     -51.0456      1.00000
     19     -51.0446      1.00000
     20     -51.0443      1.00000
     21     -51.0440      1.00000
     22     -51.0439      1.00000
     23     -51.0437      1.00000
     24     -51.0434      1.00000
     25     -51.0401      1.00000
     26     -51.0398      1.00000
     27     -51.0395      1.00000
     28     -51.0392      1.00000
     29     -51.0392      1.00000
     30     -51.0388      1.00000
     31     -51.0384      1.00000
     32     -51.0356      1.00000
     33     -49.7036      1.00000
     34     -49.7022      1.00000
     35     -49.7021      1.00000
     36     -49.7019      1.00000
     37     -49.7015      1.00000
     38     -49.7014      1.00000
     39     -49.7010      1.00000
     40     -49.6982      1.00000
     41     -49.6976      1.00000
     42     -49.6946      1.00000
     43     -49.6944      1.00000
     44     -49.6941      1.00000
     45     -49.6937      1.00000
     46     -49.6936      1.00000
     47     -49.6934      1.00000
     48     -49.6921      1.00000
[...]
   0.138E+00 -.106E+00 -.259E+02   -.133E+00 0.103E+00 0.256E+02   -.400E-02 0.276E-02 0.247E+00   -.244E-03 0.189E-03 0.231E-03
   -.824E-02 0.742E-02 -.259E+02   0.832E-02 -.684E-02 0.257E+02   -.558E-04 -.539E-03 0.251E+00   0.329E-05 -.153E-04 0.284E-03
   0.111E-01 0.177E-01 -.259E+02   -.946E-02 -.160E-01 0.257E+02   -.987E-03 -.128E-02 0.251E+00   -.137E-03 -.120E-04 0.352E-03
   -.162E+00 0.219E+00 -.420E+02   0.154E+00 -.209E+00 0.420E+02   0.945E-02 -.117E-01 0.982E-03   0.287E-03 -.309E-03 -.834E-04
   0.124E-01 0.168E-01 -.421E+02   -.115E-01 -.147E-01 0.421E+02   -.811E-03 -.170E-02 0.113E-01   0.101E-03 -.450E-04 0.130E-03
   0.397E-03 -.992E-02 -.421E+02   -.121E-02 0.986E-02 0.421E+02   0.323E-03 -.380E-03 0.113E-01   0.854E-04 -.191E-05 0.127E-03
   0.642E-02 0.118E-01 -.421E+02   -.658E-02 -.102E-01 0.421E+02   -.691E-04 -.145E-02 0.114E-01   0.451E-04 -.113E-04 0.155E-03
   0.159E+02 0.151E+02 -.126E+03   -.163E+02 -.155E+02 0.131E+03   0.388E+00 0.363E+00 -.464E+01   -.256E-03 -.298E-04 0.308E-03
   0.159E+02 0.149E+02 -.126E+03   -.163E+02 -.153E+02 0.131E+03   0.387E+00 0.380E+00 -.463E+01   -.475E-04 0.124E-03 0.417E-03
   0.159E+02 0.147E+02 -.126E+03   -.163E+02 -.151E+02 0.131E+03   0.383E+00 0.398E+00 -.464E+01   0.224E-04 0.404E-03 0.355E-03
   0.159E+02 0.149E+02 -.126E+03   -.163E+02 -.153E+02 0.131E+03   0.387E+00 0.380E+00 -.463E+01   -.151E-03 0.207E-03 0.406E-03
   -.162E+02 -.149E+02 -.126E+03   0.165E+02 0.153E+02 0.131E+03   -.367E+00 -.382E+00 -.464E+01   0.303E-03 0.552E-04 0.248E-03
   -.158E+02 -.149E+02 -.126E+03   0.162E+02 0.153E+02 0.131E+03   -.402E+00 -.378E+00 -.463E+01   -.314E-03 -.287E-03 0.419E-03
   -.159E+02 -.149E+02 -.126E+03   0.163E+02 0.153E+02 0.131E+03   -.389E+00 -.379E+00 -.463E+01   0.198E-05 -.241E-03 0.348E-03
   -.159E+02 -.149E+02 -.126E+03   0.163E+02 0.153E+02 0.131E+03   -.390E+00 -.379E+00 -.463E+01   -.195E-03 -.203E-03 0.538E-03
   0.160E+02 -.151E+02 0.126E+03   -.163E+02 0.154E+02 -.131E+03   0.390E+00 -.362E+00 0.462E+01   -.941E-04 0.207E-04 -.394E-03
   0.159E+02 -.149E+02 0.126E+03   -.163E+02 0.153E+02 -.131E+03   0.390E+00 -.379E+00 0.463E+01   0.971E-05 -.146E-03 -.263E-03
   0.160E+02 -.147E+02 0.126E+03   -.163E+02 0.151E+02 -.131E+03   0.385E+00 -.397E+00 0.462E+01   0.221E-03 -.368E-03 -.320E-03
   0.159E+02 -.149E+02 0.126E+03   -.163E+02 0.153E+02 -.131E+03   0.390E+00 -.380E+00 0.463E+01   0.105E-03 -.234E-03 -.268E-03
   -.157E+02 0.149E+02 0.126E+03   0.161E+02 -.153E+02 -.131E+03   -.400E+00 0.378E+00 0.462E+01   -.783E-04 0.415E-03 -.196E-03
   -.161E+02 0.149E+02 0.126E+03   0.165E+02 -.153E+02 -.131E+03   -.364E+00 0.383E+00 0.461E+01   0.260E-03 0.127E-04 -.469E-03
   -.159E+02 0.149E+02 0.126E+03   0.163E+02 -.153E+02 -.131E+03   -.387E+00 0.380E+00 0.463E+01   0.599E-04 0.209E-03 -.208E-03
   -.159E+02 0.149E+02 0.126E+03   0.163E+02 -.153E+02 -.131E+03   -.386E+00 0.380E+00 0.463E+01   0.218E-03 0.179E-03 -.312E-03
   0.280E+02 0.282E+02 0.336E+02   -.284E+02 -.285E+02 -.341E+02   0.350E+00 0.353E+00 0.502E+00   0.442E-04 -.187E-04 -.136E-03
   0.280E+02 0.282E+02 0.334E+02   -.284E+02 -.285E+02 -.339E+02   0.350E+00 0.353E+00 0.517E+00   -.116E-03 0.484E-04 -.197E-03
   0.280E+02 0.282E+02 0.334E+02   -.284E+02 -.285E+02 -.339E+02   0.351E+00 0.353E+00 0.517E+00   0.301E-04 0.782E-04 -.274E-03
   0.280E+02 0.282E+02 0.334E+02   -.284E+02 -.285E+02 -.339E+02   0.350E+00 0.353E+00 0.518E+00   0.487E-05 0.941E-04 -.211E-03
   -.279E+02 -.282E+02 0.333E+02   0.282E+02 0.286E+02 -.339E+02   -.351E+00 -.353E+00 0.518E+00   -.172E-03 -.982E-04 -.336E-04
   -.279E+02 -.282E+02 0.334E+02   0.283E+02 0.286E+02 -.339E+02   -.348E+00 -.354E+00 0.517E+00   0.116E-03 -.926E-04 -.184E-03
   -.279E+02 -.282E+02 0.333E+02   0.282E+02 0.286E+02 -.339E+02   -.350E+00 -.354E+00 0.518E+00   -.641E-04 -.135E-03 -.150E-03
   -.279E+02 -.282E+02 0.334E+02   0.283E+02 0.286E+02 -.339E+02   -.348E+00 -.355E+00 0.517E+00   0.911E-04 -.876E-04 -.238E-03
   0.279E+02 -.282E+02 -.331E+02   -.283E+02 0.286E+02 0.336E+02   0.349E+00 -.355E+00 -.536E+00   0.481E-04 -.781E-04 -.332E-04
   0.279E+02 -.282E+02 -.333E+02   -.283E+02 0.286E+02 0.338E+02   0.349E+00 -.354E+00 -.521E+00   0.701E-04 -.228E-04 -.482E-04
   0.279E+02 -.282E+02 -.333E+02   -.283E+02 0.286E+02 0.338E+02   0.349E+00 -.354E+00 -.520E+00   0.127E-03 -.101E-03 0.504E-05
   0.279E+02 -.282E+02 -.333E+02   -.283E+02 0.286E+02 0.338E+02   0.349E+00 -.354E+00 -.519E+00   -.315E-04 -.131E-03 0.303E-04
   -.280E+02 0.282E+02 -.333E+02   0.284E+02 -.286E+02 0.338E+02   -.349E+00 0.353E+00 -.520E+00   0.156E-03 -.505E-05 -.282E-04
   -.280E+02 0.282E+02 -.333E+02   0.283E+02 -.286E+02 0.338E+02   -.352E+00 0.352E+00 -.520E+00   -.213E-04 0.730E-04 0.126E-03
   -.280E+02 0.282E+02 -.333E+02   0.284E+02 -.285E+02 0.338E+02   -.349E+00 0.354E+00 -.521E+00   0.147E-03 0.179E-03 0.134E-03
   -.280E+02 0.282E+02 -.333E+02   0.283E+02 -.285E+02 0.338E+02   -.351E+00 0.354E+00 -.519E+00   -.821E-04 0.457E-04 0.896E-04
   0.104E+02 -.743E-01 -.283E+01   -.105E+02 0.715E-01 0.279E+01   0.882E-01 0.863E-02 0.104E+00   -.841E-03 0.960E-04 0.249E-02
   0.987E+01 0.468E-01 -.435E-01   -.998E+01 -.475E-01 0.428E-01   0.115E+00 0.521E-03 0.126E-02   -.146E-03 0.171E-03 0.135E-03
   0.991E+01 0.471E-01 -.463E-01   -.100E+02 -.475E-01 0.454E-01   0.114E+00 0.343E-03 0.150E-02   -.304E-03 -.235E-04 0.257E-03
   0.989E+01 0.469E-01 -.214E-01   -.100E+02 -.475E-01 0.213E-01   0.115E+00 0.489E-03 0.276E-03   -.201E-03 0.537E-04 0.298E-04
   -.992E+01 0.783E-01 -.615E-01   0.100E+02 -.780E-01 0.612E-01   -.114E+00 -.765E-03 0.104E-02   0.225E-03 -.177E-03 -.129E-04
   -.992E+01 0.148E-01 -.625E-01   0.100E+02 -.162E-01 0.621E-01   -.114E+00 0.166E-02 0.120E-02   0.513E-03 0.213E-03 -.699E-04
   -.992E+01 0.157E-01 -.620E-01   0.100E+02 -.170E-01 0.612E-01   -.113E+00 0.249E-02 0.180E-02   0.578E-04 -.137E-03 -.140E-03
   -.992E+01 0.794E-01 -.630E-01   0.100E+02 -.788E-01 0.621E-01   -.113E+00 -.172E-02 0.189E-02   0.721E-04 0.983E-04 -.109E-03
   0.190E+02 0.191E+02 0.185E+03   -.180E+02 -.180E+02 -.183E+03   -.106E+01 -.109E+01 -.242E+01   0.424E-03 -.170E-03 -.113E-02
   0.190E+02 0.189E+02 0.185E+03   -.180E+02 -.179E+02 -.183E+03   -.106E+01 -.108E+01 -.241E+01   0.204E-03 0.160E-03 -.855E-03
   0.190E+02 0.188E+02 0.185E+03   -.180E+02 -.178E+02 -.183E+03   -.106E+01 -.108E+01 -.242E+01   0.450E-03 0.544E-03 -.917E-03
   0.190E+02 0.189E+02 0.185E+03   -.180E+02 -.178E+02 -.183E+03   -.106E+01 -.108E+01 -.241E+01   0.335E-03 0.236E-03 -.479E-03
   -.190E+02 -.189E+02 0.185E+03   0.180E+02 0.178E+02 -.183E+03   0.107E+01 0.109E+01 -.243E+01   0.604E-03 -.705E-03 -.261E-02
   -.188E+02 -.189E+02 0.185E+03   0.177E+02 0.178E+02 -.183E+03   0.106E+01 0.109E+01 -.241E+01   -.450E-03 -.713E-03 -.121E-02
   -.189E+02 -.189E+02 0.185E+03   0.179E+02 0.178E+02 -.183E+03   0.106E+01 0.109E+01 -.241E+01   0.197E-03 -.685E-03 -.980E-03
   -.189E+02 -.189E+02 0.185E+03   0.178E+02 0.178E+02 -.183E+03   0.106E+01 0.109E+01 -.241E+01   -.201E-03 -.801E-03 -.943E-03
   0.189E+02 -.190E+02 -.185E+03   -.178E+02 0.179E+02 0.182E+03   -.106E+01 0.109E+01 0.240E+01   0.965E-05 -.533E-03 -.344E-03
   0.189E+02 -.189E+02 -.185E+03   -.178E+02 0.178E+02 0.183E+03   -.106E+01 0.109E+01 0.241E+01   -.163E-03 -.738E-03 0.889E-03
   0.189E+02 -.188E+02 -.185E+03   -.178E+02 0.177E+02 0.182E+03   -.107E+01 0.108E+01 0.240E+01   -.692E-04 -.915E-03 -.437E-03
   0.189E+02 -.189E+02 -.185E+03   -.178E+02 0.178E+02 0.183E+03   -.106E+01 0.109E+01 0.241E+01   -.118E-03 -.739E-03 0.495E-03
   -.189E+02 0.189E+02 -.185E+03   0.178E+02 -.179E+02 0.183E+03   0.106E+01 -.109E+01 0.240E+01   -.741E-03 0.268E-03 -.286E-03
   -.191E+02 0.189E+02 -.185E+03   0.181E+02 -.179E+02 0.182E+03   0.106E+01 -.108E+01 0.239E+01   -.561E-04 0.307E-03 -.164E-02
   -.190E+02 0.189E+02 -.185E+03   0.179E+02 -.179E+02 0.183E+03   0.106E+01 -.108E+01 0.241E+01   -.592E-03 0.421E-03 0.517E-04
   -.190E+02 0.189E+02 -.185E+03   0.180E+02 -.179E+02 0.183E+03   0.106E+01 -.108E+01 0.241E+01   -.246E-03 0.180E-03 -.244E-03
   -.767E+00 0.906E+00 0.209E+03   0.731E+00 -.867E+00 -.211E+03   0.413E-01 -.441E-01 0.202E+01   0.156E-02 -.188E-02 -.176E-02
   0.491E-01 -.529E-01 0.209E+03   -.466E-01 0.557E-01 -.211E+03   -.151E-02 -.139E-02 0.207E+01   -.370E-03 -.635E-03 -.881E-03
   -.617E-02 -.178E+00 0.209E+03   -.832E-04 0.171E+00 -.211E+03   0.462E-02 0.585E-02 0.207E+01   0.564E-03 0.381E-03 -.899E-03
   0.232E-01 -.778E-01 0.209E+03   -.244E-01 0.765E-01 -.211E+03   0.135E-02 0.194E-02 0.206E+01   -.266E-03 -.656E-03 -.106E-02
   0.808E+00 -.645E+00 0.199E+03   -.773E+00 0.617E+00 -.201E+03   -.349E-01 0.305E-01 0.204E+01   -.250E-02 0.928E-03 -.801E-03
   -.127E+00 -.112E+00 0.199E+03   0.120E+00 0.103E+00 -.201E+03   0.489E-02 0.675E-02 0.207E+01   0.541E-03 0.963E-03 -.872E-03
   0.793E-01 0.149E-01 0.199E+03   -.715E-01 -.119E-01 -.201E+03   -.512E-02 -.160E-02 0.207E+01   -.132E-02 -.415E-03 -.539E-03
   -.120E-01 -.261E-01 0.199E+03   0.112E-01 0.248E-01 -.201E+03   0.968E-03 0.131E-02 0.206E+01   -.246E-03 0.616E-04 -.105E-02
   -.811E+00 -.103E+01 -.199E+03   0.775E+00 0.980E+00 0.201E+03   0.406E-01 0.491E-01 -.210E+01   0.225E-02 0.217E-02 0.596E-03
   0.708E-02 -.709E-01 -.199E+03   -.458E-02 0.640E-01 0.201E+03   -.229E-02 0.561E-02 -.206E+01   0.338E-03 0.294E-03 0.142E-02
   -.484E-01 0.540E-01 -.199E+03   0.427E-01 -.505E-01 0.201E+03   0.368E-02 -.191E-02 -.206E+01   0.878E-03 -.521E-03 0.140E-02
   -.191E-01 -.455E-01 -.199E+03   0.180E-01 0.432E-01 0.201E+03   0.383E-03 0.233E-02 -.206E+01   0.549E-03 -.157E-03 0.144E-02
   -.168E+00 -.130E-01 -.209E+03   0.162E+00 0.174E-01 0.211E+03   0.450E-02 -.287E-02 -.206E+01   0.432E-03 -.268E-03 0.136E-02
   0.776E+00 0.531E+00 -.209E+03   -.741E+00 -.509E+00 0.211E+03   -.349E-01 -.251E-01 -.208E+01   -.200E-02 -.140E-02 0.157E-02
   -.541E-01 -.974E-01 -.209E+03   0.536E-01 0.947E-01 0.211E+03   0.162E-03 0.278E-02 -.206E+01   0.166E-03 -.123E-03 0.120E-02
   0.367E-01 -.138E+00 -.209E+03   -.288E-01 0.132E+00 0.211E+03   -.617E-02 0.555E-02 -.206E+01   -.287E-03 0.135E-04 0.194E-02
 -----------------------------------------------------------------------------------------------
   -.166E-01 -.265E-01 0.223E+00   -.839E-13 0.578E-13 0.568E-13   0.168E-01 0.301E-01 -.218E+00   -.272E-03 -.507E-02 -.508E-02
 
 
 POSITION                                       TOTAL-FORCE (eV/Angst)
 -----------------------------------------------------------------------------------
      2.77841      5.21785      1.58925        -0.000398     -0.000961     -0.002515
      8.33453      5.21785      1.58910        -0.000567      0.000429     -0.000159
      2.77841     10.77658      1.58925         0.000484     -0.000325     -0.000320
      8.33453     10.77658      1.58910         0.000050      0.000048     -0.000057
      0.00058      2.43861      1.89560        -0.000932     -0.001246      0.000142
      5.55670      2.43861      1.89545         0.000206     -0.000281     -0.000155
      0.00058      7.99734      1.89560        -0.000481      0.000534     -0.000065
      5.55670      7.99734      1.89545        -0.000122     -0.000049     -0.000270
      2.78043      5.21797      8.30298        -0.000601     -0.000455     -0.000070
      8.33655      5.21797      8.30283         0.001227     -0.000614     -0.000410
      2.78043     10.77670      8.30298         0.000022      0.000041     -0.000046
      8.33655     10.77670      8.30283         0.000527      0.000413     -0.000241
      0.00259      2.43849      8.60933         0.002025     -0.001527     -0.003354
      5.55871      2.43849      8.60919         0.000153      0.000298     -0.000178
      0.00259      7.99722      8.60933        -0.000400     -0.000426     -0.000117
      5.55871      7.99722      8.60919        -0.000182      0.000135     -0.000225
     -1.37640      1.05960      8.18451         0.001191     -0.006008     -0.003359
      4.17971      1.05960      8.18437         0.000397     -0.000236     -0.000059
     -1.37640      6.61833      8.18451        -0.001609      0.006376     -0.003347
      4.17971      6.61833      8.18437         0.000400      0.000033     -0.000028
      1.38116      3.81753      8.18442         0.007786     -0.001787     -0.005284
      6.93728      3.81753      8.18427        -0.004778      0.001097     -0.001955
      1.38116      9.37626      8.18442         0.000033      0.000010     -0.000219
      6.93728      9.37626      8.18427        -0.000404      0.000052      0.000137
      1.39985      1.03817      2.01416         0.000971      0.006085     -0.003063
      6.95597      1.03817      2.01401         0.000300      0.000268      0.000154
      1.39985      6.59689      2.01416        -0.001842     -0.006366     -0.003280
      6.95597      6.59689      2.01401         0.000293     -0.000016      0.000192
      4.15741      3.83897      2.01406        -0.004888     -0.001258     -0.001793
      9.71353      3.83897      2.01392         0.007676      0.001553     -0.004840
      4.15741      9.39769      2.01406        -0.000417     -0.000076      0.000370
      9.71353      9.39769      2.01392        -0.000013     -0.000045      0.000000
      1.40044      3.83812      3.78391         0.000077     -0.000088     -0.007557
      6.95656      3.83812      3.78377        -0.000208     -0.000087     -0.000914
      1.40044      9.39685      3.78391         0.000013     -0.000116     -0.000611
      6.95656      9.39685      3.78377        -0.000099     -0.000186     -0.000082
      4.15774      1.03891      3.78384        -0.000487      0.000630     -0.000381
      9.71386      1.03891      3.78369         0.000471      0.000208     -0.000785
      4.15774      6.59764      3.78384        -0.000352     -0.000143     -0.000236
      9.71386      6.59764      3.78369         0.000660     -0.000056     -0.001058
     -1.37674      3.81828      6.41474         0.000010      0.000149     -0.007990
      4.17938      3.81828      6.41460        -0.000253      0.000170     -0.001294
     -1.37674      9.37700      6.41474        -0.000042      0.000145     -0.000988
      4.17938      9.37700      6.41460        -0.000118      0.000173     -0.000489
      1.38057      1.05876      6.41466         0.000507     -0.000235     -0.001211
      6.93668      1.05876      6.41452        -0.000582     -0.000559     -0.000763
      1.38057      6.61748      6.41466         0.000599      0.000129     -0.001441
      6.93668      6.61748      6.41452        -0.000329      0.000122     -0.000595
     -1.39021      3.82822     10.18908        -0.017126      0.005941      0.071264
      6.93839      3.82822     -0.00014         0.000281     -0.000009      0.000781
      1.38227      9.38694      0.00001        -0.000089     -0.000024      0.000887
      6.93839      9.38694     -0.00014         0.000227     -0.000023      0.000194
      1.39874      1.04885     10.19857         0.000340     -0.000558      0.000679
      6.95485      1.04885     10.19843         0.000358      0.000502      0.000728
      1.39874      6.60758     10.19857         0.000839      0.001017      0.000806
      6.95485      6.60758     10.19843         0.000845     -0.001018      0.000872
     -1.25763      1.18232      6.18371        -0.000519      0.000701      0.001792
      4.29848      1.18232      6.18356        -0.000155      0.000055      0.000522
     -1.25763      6.74104      6.18371        -0.000145     -0.000606      0.002019
      4.29848      6.74104      6.18356        -0.000328      0.000016      0.000398
      1.26131      3.69462      6.18369        -0.000668      0.000040      0.003947
      6.81742      3.69462      6.18354         0.000936     -0.000158      0.001317
      1.26131      9.25335      6.18369         0.000124     -0.000128      0.000487
      6.81742      9.25335      6.18354         0.000367      0.000007      0.000174
      1.51970      0.91526      4.01489        -0.000341     -0.000618      0.001625
      7.07582      0.91526      4.01474        -0.000173     -0.000094      0.000360
      1.51970      6.47399      4.01489        -0.000027      0.000662      0.001898
      7.07582      6.47399      4.01474        -0.000306     -0.000070      0.000174
      4.03864      3.96168      4.01487         0.001065      0.000195      0.001174
      9.59476      3.96168      4.01472        -0.000294     -0.000261      0.003665
      4.03864      9.52041      4.01487         0.000366     -0.000067      0.000007
      9.59476      9.52041      4.01472         0.000188      0.000117      0.000296
      0.00035      5.21813      1.57032         0.006756     -0.006158     -0.009207
      5.55647      5.21813      1.57017         0.000611      0.000864     -0.000578
      0.00035     10.77686      1.57032        -0.001070     -0.001035     -0.000391
      5.55647     10.77686      1.57017        -0.000128      0.000032     -0.000193
      2.77849      2.43869      1.57537        -0.001717      0.002735     -0.005882
      8.33461      2.43869      1.57522        -0.001273     -0.001295     -0.000535
      2.77849      7.99742      1.57537         0.001359      0.000960     -0.000878
      8.33461      7.99742      1.57522        -0.000062      0.000041      0.000105
      0.00252      5.21805      8.62321         0.006798      0.005497     -0.008865
      5.55864      5.21805      8.62307         0.000555     -0.000922     -0.000531
      0.00252     10.77678      8.62321        -0.001051      0.001070     -0.000377
      5.55864     10.77678      8.62307        -0.000129     -0.000048     -0.000174
      2.78066      2.43877      8.62826        -0.001417      0.001272     -0.000559
      8.33677      2.43877      8.62811        -0.002229     -0.003641     -0.006466
      2.78066      7.99750      8.62826        -0.000097     -0.000041      0.000135
      8.33677      7.99750      8.62811         0.001355     -0.000907     -0.000856
 -----------------------------------------------------------------------------------
    total drift:                               -0.000065     -0.001458      0.000122


--------------------------------------------------------------------------------------------------------



  FREE ENERGIE OF THE ION-ELECTRON SYSTEM (eV)
  ---------------------------------------------------
  free  energy   TOTEN  =      -489.21507658 eV

  energy  without entropy=     -489.21507658  energy(sigma->0) =     -489.21507658
 


--------------------------------------------------------------------------------------------------------


    POTLOK:  cpu time    3.3543: real time    3.3731


--------------------------------------------------------------------------------------------------------


     LOOP+:  cpu time 5933.0242: real time 5999.8729
    4ORBIT:  cpu time    0.0000: real time    0.0000

 total amount of memory used by VASP MPI-rank0  1233264. kBytes
=======================================================================

   base      :      30000. kBytes
   nonl-proj :      75226. kBytes
   fftplans  :      85054. kBytes
   grid      :      64684. kBytes
   one-center:        466. kBytes
   wavefun   :     977834. kBytes
 
  
  
 General timing and accounting informations for this job:
 ========================================================
  
                  Total CPU time used (sec):     6031.142
                            User time (sec):     5965.764
                          System time (sec):       65.378
                         Elapsed time (sec):     6099.674
  
                   Maximum memory used (kb):     1438760.
                   Average memory used (kb):           0.
  
                          Minor page faults:       495952
                          Major page faults:            3
                 Voluntary context switches:        58924
