  99  99   0   0
  0.1430410E+02  0.1177748E-08  0.1177748E-08  0.1058004E-08  0.5000000E-15
  1.000000000000000E-004
  CAR 
 unknown system                          
     17.92272153    -54.33606365  301      5.42797326      1.00000000
    -54.336  0.0000E+00  0.0000E+00  0.0000E+00  0.0000E+00
    -54.095  0.0000E+00  0.0000E+00  0.0000E+00  0.0000E+00
    -53.854  0.0000E+00  0.0000E+00  0.0000E+00  0.0000E+00
    -53.613  0.0000E+00  0.0000E+00  0.0000E+00  0.0000E+00
    -53.373  0.0000E+00  0.0000E+00  0.0000E+00  0.0000E+00
    -53.132  0.0000E+00  0.0000E+00  0.0000E+00  0.0000E+00
    -52.891  0.0000E+00  0.0000E+00  0.0000E+00  0.0000E+00
    -52.650  0.0000E+00  0.0000E+00  0.0000E+00  0.0000E+00
    -52.409  0.0000E+00  0.0000E+00  0.0000E+00  0.0000E+00
    -52.168  0.0000E+00  0.0000E+00  0.0000E+00  0.0000E+00
    -51.927  0.0000E+00  0.0000E+00  0.0000E+00  0.0000E+00
    -51.687  0.0000E+00  0.0000E+00  0.0000E+00  0.0000E+00
    -51.446  0.0000E+00  0.0000E+00  0.0000E+00  0.0000E+00
    -51.205  0.4654E-03  0.0000E+00  0.1121E-03  0.0000E+00
    -50.964  0.1473E+03  0.0000E+00  0.3548E+02  0.0000E+00
    -50.723  0.2140E+01  0.0000E+00  0.3600E+02  0.0000E+00
    -50.482  0.0000E+00  0.0000E+00  0.3600E+02  0.0000E+00
    -50.241  0.0000E+00  0.0000E+00  0.3600E+02  0.0000E+00
    -50.001  0.0000E+00  0.0000E+00  0.3600E+02  0.0000E+00
    -49.760  0.1731E+01  0.0000E+00  0.3642E+02  0.0000E+00
    -49.519  0.2705E+03  0.0000E+00  0.1016E+03  0.0000E+00
    -49.278  0.2667E+02  0.0000E+00  0.1080E+03  0.0000E+00
    -49.037  0.0000E+00  0.0000E+00  0.1080E+03  0.0000E+00
    -48.796  0.0000E+00  0.0000E+00  0.1080E+03  0.0000E+00
    -48.555  0.0000E+00  0.0000E+00  0.1080E+03  0.0000E+00
    -48.314  0.0000E+00  0.0000E+00  0.1080E+03  0.0000E+00
    -48.074  0.0000E+00  0.0000E+00  0.1080E+03  0.0000E+00
    -47.833  0.0000E+00  0.0000E+00  0.1080E+03  0.0000E+00
    -47.592  0.0000E+00  0.0000E+00  0.1080E+03  0.0000E+00
    -47.351  0.0000E+00  0.0000E+00  0.1080E+03  0.0000E+00
    -47.110  0.0000E+00  0.0000E+00  0.1080E+03  0.0000E+00
    -46.869  0.0000E+00  0.0000E+00  0.1080E+03  0.0000E+00
    -46.628  0.0000E+00  0.0000E+00  0.1080E+03  0.0000E+00
    -46.388  0.0000E+00  0.3256E+00  0.1080E+03  0.7842E-01
    -46.147  0.0000E+00  0.1491E+03  0.1080E+03  0.3599E+02
    -45.906  0.0000E+00  0.6761E+02  0.1080E+03  0.5228E+02
    -45.665  0.0000E+00  0.2314E+03  0.1080E+03  0.1080E+03
    -45.424  0.0000E+00  0.0000E+00  0.1080E+03  0.1080E+03
    -45.183  0.0000E+00  0.0000E+00  0.1080E+03  0.1080E+03
    -44.942  0.0000E+00  0.0000E+00  0.1080E+03  0.1080E+03
    -44.702  0.0000E+00  0.0000E+00  0.1080E+03  0.1080E+03
    -44.461  0.0000E+00  0.0000E+00  0.1080E+03  0.1080E+03
    -44.220  0.0000E+00  0.0000E+00  0.1080E+03  0.1080E+03
    -43.979  0.0000E+00  0.0000E+00  0.1080E+03  0.1080E+03
    -43.738  0.0000E+00  0.0000E+00  0.1080E+03  0.1080E+03
    -43.497  0.0000E+00  0.0000E+00  0.1080E+03  0.1080E+03
    -43.256  0.0000E+00  0.0000E+00  0.1080E+03  0.1080E+03
    -43.016  0.0000E+00  0.0000E+00  0.1080E+03  0.1080E+03
    -42.775  0.0000E+00  0.0000E+00  0.1080E+03  0.1080E+03
    -42.534  0.0000E+00  0.0000E+00  0.1080E+03  0.1080E+03
    -42.293  0.0000E+00  0.0000E+00  0.1080E+03  0.1080E+03
    -42.052  0.0000E+00  0.0000E+00  0.1080E+03  0.1080E+03
    -41.811  0.0000E+00  0.0000E+00  0.1080E+03  0.1080E+03
    -41.570  0.0000E+00  0.0000E+00  0.1080E+03  0.1080E+03
    -41.329  0.0000E+00  0.0000E+00  0.1080E+03  0.1080E+03
    -41.089  0.0000E+00  0.0000E+00  0.1080E+03  0.1080E+03
    -40.848  0.0000E+00  0.0000E+00  0.1080E+03  0.1080E+03
    -40.607  0.0000E+00  0.0000E+00  0.1080E+03  0.1080E+03
    -40.366  0.0000E+00  0.0000E+00  0.1080E+03  0.1080E+03
    -40.125  0.4120E-11  0.2640E-11  0.1080E+03  0.1080E+03
    -39.884  0.2008E+02  0.1866E+02  0.1128E+03  0.1125E+03
    -39.643  0.5465E+02  0.5607E+02  0.1260E+03  0.1260E+03
    -39.403  0.0000E+00  0.0000E+00  0.1260E+03  0.1260E+03
    -39.162  0.0000E+00  0.0000E+00  0.1260E+03  0.1260E+03
    -38.921  0.0000E+00  0.0000E+00  0.1260E+03  0.1260E+03
    -38.680  0.0000E+00  0.0000E+00  0.1260E+03  0.1260E+03
    -38.439  0.0000E+00  0.0000E+00  0.1260E+03  0.1260E+03
    -38.198  0.0000E+00  0.0000E+00  0.1260E+03  0.1260E+03
    -37.957  0.0000E+00  0.0000E+00  0.1260E+03  0.1260E+03
    -37.717  0.0000E+00  0.0000E+00  0.1260E+03  0.1260E+03
    -37.476  0.0000E+00  0.0000E+00  0.1260E+03  0.1260E+03
    -37.235  0.0000E+00  0.0000E+00  0.1260E+03  0.1260E+03
    -36.994  0.0000E+00  0.0000E+00  0.1260E+03  0.1260E+03
    -36.753  0.0000E+00  0.0000E+00  0.1260E+03  0.1260E+03
    -36.512  0.0000E+00  0.0000E+00  0.1260E+03  0.1260E+03
    -36.271  0.0000E+00  0.0000E+00  0.1260E+03  0.1260E+03
    -36.031  0.0000E+00  0.0000E+00  0.1260E+03  0.1260E+03
    -35.790  0.0000E+00  0.0000E+00  0.1260E+03  0.1260E+03
    -35.549  0.0000E+00  0.0000E+00  0.1260E+03  0.1260E+03
    -35.308  0.0000E+00  0.0000E+00  0.1260E+03  0.1260E+03
    -35.067  0.0000E+00  0.0000E+00  0.1260E+03  0.1260E+03
    -34.826  0.0000E+00  0.0000E+00  0.1260E+03  0.1260E+03
    -34.585  0.0000E+00  0.0000E+00  0.1260E+03  0.1260E+03
    -34.344  0.0000E+00  0.0000E+00  0.1260E+03  0.1260E+03
    -34.104  0.0000E+00  0.0000E+00  0.1260E+03  0.1260E+03
    -33.863  0.0000E+00  0.0000E+00  0.1260E+03  0.1260E+03
    -33.622  0.0000E+00  0.0000E+00  0.1260E+03  0.1260E+03
    -33.381  0.0000E+00  0.0000E+00  0.1260E+03  0.1260E+03
    -33.140  0.0000E+00  0.0000E+00  0.1260E+03  0.1260E+03
    -32.899  0.0000E+00  0.0000E+00  0.1260E+03  0.1260E+03
    -32.658  0.0000E+00  0.0000E+00  0.1260E+03  0.1260E+03
    -32.418  0.0000E+00  0.0000E+00  0.1260E+03  0.1260E+03
    -32.177  0.0000E+00  0.0000E+00  0.1260E+03  0.1260E+03
    -31.936  0.0000E+00  0.0000E+00  0.1260E+03  0.1260E+03
    -31.695  0.0000E+00  0.0000E+00  0.1260E+03  0.1260E+03
    -31.454  0.0000E+00  0.0000E+00  0.1260E+03  0.1260E+03
    -31.213  0.0000E+00  0.0000E+00  0.1260E+03  0.1260E+03
    -30.972  0.0000E+00  0.0000E+00  0.1260E+03  0.1260E+03
    -30.732  0.0000E+00  0.0000E+00  0.1260E+03  0.1260E+03
    -30.491  0.0000E+00  0.0000E+00  0.1260E+03  0.1260E+03
    -30.250  0.0000E+00  0.0000E+00  0.1260E+03  0.1260E+03
    -30.009  0.0000E+00  0.0000E+00  0.1260E+03  0.1260E+03
    -29.768  0.0000E+00  0.0000E+00  0.1260E+03  0.1260E+03
    -29.527  0.0000E+00  0.0000E+00  0.1260E+03  0.1260E+03
    -29.286  0.0000E+00  0.0000E+00  0.1260E+03  0.1260E+03
    -29.045  0.0000E+00  0.0000E+00  0.1260E+03  0.1260E+03
    -28.805  0.0000E+00  0.0000E+00  0.1260E+03  0.1260E+03
    -28.564  0.0000E+00  0.0000E+00  0.1260E+03  0.1260E+03
    -28.323  0.0000E+00  0.0000E+00  0.1260E+03  0.1260E+03
    -28.082  0.0000E+00  0.0000E+00  0.1260E+03  0.1260E+03
    -27.841  0.0000E+00  0.0000E+00  0.1260E+03  0.1260E+03
    -27.600  0.0000E+00  0.0000E+00  0.1260E+03  0.1260E+03
    -27.359  0.0000E+00  0.0000E+00  0.1260E+03  0.1260E+03
    -27.119  0.0000E+00  0.0000E+00  0.1260E+03  0.1260E+03
    -26.878  0.0000E+00  0.0000E+00  0.1260E+03  0.1260E+03
    -26.637  0.0000E+00  0.0000E+00  0.1260E+03  0.1260E+03
    -26.396  0.0000E+00  0.0000E+00  0.1260E+03  0.1260E+03
    -26.155  0.0000E+00  0.0000E+00  0.1260E+03  0.1260E+03
    -25.914  0.0000E+00  0.0000E+00  0.1260E+03  0.1260E+03
    -25.673  0.0000E+00  0.0000E+00  0.1260E+03  0.1260E+03
    -25.433  0.0000E+00  0.0000E+00  0.1260E+03  0.1260E+03
    -25.192  0.0000E+00  0.0000E+00  0.1260E+03  0.1260E+03
    -24.951  0.0000E+00  0.0000E+00  0.1260E+03  0.1260E+03
    -24.710  0.0000E+00  0.0000E+00  0.1260E+03  0.1260E+03
    -24.469  0.0000E+00  0.0000E+00  0.1260E+03  0.1260E+03
    -24.228  0.0000E+00  0.0000E+00  0.1260E+03  0.1260E+03
    -23.987  0.0000E+00  0.0000E+00  0.1260E+03  0.1260E+03
    -23.747  0.0000E+00  0.0000E+00  0.1260E+03  0.1260E+03
    -23.506  0.0000E+00  0.0000E+00  0.1260E+03  0.1260E+03
    -23.265  0.0000E+00  0.0000E+00  0.1260E+03  0.1260E+03
    -23.024  0.0000E+00  0.0000E+00  0.1260E+03  0.1260E+03
    -22.783  0.0000E+00  0.0000E+00  0.1260E+03  0.1260E+03
    -22.542  0.0000E+00  0.0000E+00  0.1260E+03  0.1260E+03
    -22.301  0.0000E+00  0.0000E+00  0.1260E+03  0.1260E+03
    -22.060  0.0000E+00  0.0000E+00  0.1260E+03  0.1260E+03
    -21.820  0.0000E+00  0.0000E+00  0.1260E+03  0.1260E+03
    -21.579  0.0000E+00  0.0000E+00  0.1260E+03  0.1260E+03
    -21.338  0.0000E+00  0.0000E+00  0.1260E+03  0.1260E+03
    -21.097  0.0000E+00  0.0000E+00  0.1260E+03  0.1260E+03
    -20.856  0.0000E+00  0.0000E+00  0.1260E+03  0.1260E+03
    -20.615  0.0000E+00  0.0000E+00  0.1260E+03  0.1260E+03
    -20.374  0.0000E+00  0.0000E+00  0.1260E+03  0.1260E+03
    -20.134  0.0000E+00  0.0000E+00  0.1260E+03  0.1260E+03
    -19.893  0.0000E+00  0.0000E+00  0.1260E+03  0.1260E+03
    -19.652  0.0000E+00  0.0000E+00  0.1260E+03  0.1260E+03
    -19.411  0.0000E+00  0.0000E+00  0.1260E+03  0.1260E+03
    -19.170  0.0000E+00  0.0000E+00  0.1260E+03  0.1260E+03
    -18.929  0.0000E+00  0.0000E+00  0.1260E+03  0.1260E+03
    -18.688  0.0000E+00  0.0000E+00  0.1260E+03  0.1260E+03
    -18.448  0.0000E+00  0.0000E+00  0.1260E+03  0.1260E+03
    -18.207  0.0000E+00  0.0000E+00  0.1260E+03  0.1260E+03
    -17.966  0.0000E+00  0.0000E+00  0.1260E+03  0.1260E+03
    -17.725  0.0000E+00  0.0000E+00  0.1260E+03  0.1260E+03
    -17.484  0.0000E+00  0.0000E+00  0.1260E+03  0.1260E+03
    -17.243  0.0000E+00  0.0000E+00  0.1260E+03  0.1260E+03
    -17.002  0.0000E+00  0.0000E+00  0.1260E+03  0.1260E+03
    -16.761  0.0000E+00  0.0000E+00  0.1260E+03  0.1260E+03
    -16.521  0.0000E+00  0.0000E+00  0.1260E+03  0.1260E+03
    -16.280  0.0000E+00  0.0000E+00  0.1260E+03  0.1260E+03
    -16.039  0.0000E+00  0.0000E+00  0.1260E+03  0.1260E+03
    -15.798  0.0000E+00  0.0000E+00  0.1260E+03  0.1260E+03
    -15.557  0.0000E+00  0.0000E+00  0.1260E+03  0.1260E+03
    -15.316  0.0000E+00  0.0000E+00  0.1260E+03  0.1260E+03
    -15.075  0.0000E+00  0.0000E+00  0.1260E+03  0.1260E+03
    -14.835  0.0000E+00  0.0000E+00  0.1260E+03  0.1260E+03
    -14.594  0.0000E+00  0.0000E+00  0.1260E+03  0.1260E+03
    -14.353  0.0000E+00  0.0000E+00  0.1260E+03  0.1260E+03
    -14.112  0.0000E+00  0.0000E+00  0.1260E+03  0.1260E+03
    -13.871  0.0000E+00  0.0000E+00  0.1260E+03  0.1260E+03
    -13.630  0.0000E+00  0.0000E+00  0.1260E+03  0.1260E+03
    -13.389  0.4366E-04  0.0000E+00  0.1260E+03  0.1260E+03
    -13.149  0.2767E+02  0.0000E+00  0.1327E+03  0.1260E+03
    -12.908  0.4657E+02  0.9323E-01  0.1439E+03  0.1260E+03
    -12.667  0.4902E+00  0.5486E+02  0.1440E+03  0.1392E+03
    -12.426  0.0000E+00  0.1977E+02  0.1440E+03  0.1440E+03
    -12.185  0.0000E+00  0.0000E+00  0.1440E+03  0.1440E+03
    -11.944  0.0000E+00  0.0000E+00  0.1440E+03  0.1440E+03
    -11.703  0.0000E+00  0.0000E+00  0.1440E+03  0.1440E+03
    -11.463  0.0000E+00  0.0000E+00  0.1440E+03  0.1440E+03
    -11.222  0.0000E+00  0.0000E+00  0.1440E+03  0.1440E+03
    -10.981  0.0000E+00  0.0000E+00  0.1440E+03  0.1440E+03
    -10.740  0.0000E+00  0.0000E+00  0.1440E+03  0.1440E+03
    -10.499  0.0000E+00  0.0000E+00  0.1440E+03  0.1440E+03
    -10.258  0.0000E+00  0.0000E+00  0.1440E+03  0.1440E+03
    -10.017  0.0000E+00  0.0000E+00  0.1440E+03  0.1440E+03
     -9.776  0.0000E+00  0.0000E+00  0.1440E+03  0.1440E+03
     -9.536  0.0000E+00  0.0000E+00  0.1440E+03  0.1440E+03
     -9.295  0.0000E+00  0.0000E+00  0.1440E+03  0.1440E+03
     -9.054  0.0000E+00  0.0000E+00  0.1440E+03  0.1440E+03
     -8.813  0.0000E+00  0.0000E+00  0.1440E+03  0.1440E+03
     -8.572  0.0000E+00  0.0000E+00  0.1440E+03  0.1440E+03
     -8.331  0.0000E+00  0.0000E+00  0.1440E+03  0.1440E+03
     -8.090  0.0000E+00  0.0000E+00  0.1440E+03  0.1440E+03
     -7.850  0.2459E-11  0.0000E+00  0.1440E+03  0.1440E+03
     -7.609  0.3427E+00  0.2658E-12  0.1441E+03  0.1440E+03
     -7.368  0.1529E+02  0.2703E+00  0.1478E+03  0.1441E+03
     -7.127  0.3285E+02  0.1699E+02  0.1557E+03  0.1482E+03
     -6.886  0.3135E+02  0.3180E+02  0.1632E+03  0.1558E+03
     -6.645  0.3227E+02  0.2338E+02  0.1710E+03  0.1614E+03
     -6.404  0.5399E-03  0.3938E+02  0.1710E+03  0.1709E+03
     -6.164  0.0000E+00  0.2657E+00  0.1710E+03  0.1710E+03
     -5.923  0.0000E+00  0.0000E+00  0.1710E+03  0.1710E+03
     -5.682  0.0000E+00  0.0000E+00  0.1710E+03  0.1710E+03
     -5.441  0.0000E+00  0.0000E+00  0.1710E+03  0.1710E+03
     -5.200  0.0000E+00  0.0000E+00  0.1710E+03  0.1710E+03
     -4.959  0.0000E+00  0.0000E+00  0.1710E+03  0.1710E+03
     -4.718  0.0000E+00  0.0000E+00  0.1710E+03  0.1710E+03
     -4.478  0.0000E+00  0.0000E+00  0.1710E+03  0.1710E+03
     -4.237  0.0000E+00  0.0000E+00  0.1710E+03  0.1710E+03
     -3.996  0.0000E+00  0.0000E+00  0.1710E+03  0.1710E+03
     -3.755  0.0000E+00  0.0000E+00  0.1710E+03  0.1710E+03
     -3.514  0.0000E+00  0.0000E+00  0.1710E+03  0.1710E+03
     -3.273  0.0000E+00  0.0000E+00  0.1710E+03  0.1710E+03
     -3.032  0.0000E+00  0.0000E+00  0.1710E+03  0.1710E+03
     -2.791  0.0000E+00  0.0000E+00  0.1710E+03  0.1710E+03
     -2.551  0.0000E+00  0.0000E+00  0.1710E+03  0.1710E+03
     -2.310  0.0000E+00  0.0000E+00  0.1710E+03  0.1710E+03
     -2.069  0.1309E-02  0.0000E+00  0.1710E+03  0.1710E+03
     -1.828  0.2134E+02  0.0000E+00  0.1761E+03  0.1710E+03
     -1.587  0.1897E+02  0.0000E+00  0.1807E+03  0.1710E+03
     -1.346  0.1480E+02  0.0000E+00  0.1843E+03  0.1710E+03
     -1.105  0.2271E+02  0.0000E+00  0.1897E+03  0.1710E+03
     -0.865  0.5445E+02  0.0000E+00  0.2029E+03  0.1710E+03
     -0.624  0.6298E+02  0.2644E-04  0.2180E+03  0.1710E+03
     -0.383  0.3901E+02  0.7151E+01  0.2274E+03  0.1727E+03
     -0.142  0.8027E+02  0.2220E+02  0.2468E+03  0.1781E+03
      0.099  0.8810E+02  0.1292E+02  0.2680E+03  0.1812E+03
      0.340  0.8456E+02  0.2295E+02  0.2883E+03  0.1867E+03
      0.581  0.7230E+02  0.2913E+02  0.3058E+03  0.1937E+03
      0.821  0.6524E+02  0.4873E+02  0.3215E+03  0.2055E+03
      1.062  0.4065E+02  0.4069E+02  0.3313E+03  0.2153E+03
      1.303  0.3379E+02  0.3445E+02  0.3394E+03  0.2236E+03
      1.544  0.5155E+02  0.2306E+02  0.3518E+03  0.2291E+03
      1.785  0.4919E+02  0.3319E+02  0.3637E+03  0.2371E+03
      2.026  0.7462E+02  0.4055E+02  0.3816E+03  0.2469E+03
      2.267  0.6993E+02  0.3060E+02  0.3985E+03  0.2542E+03
      2.508  0.3079E+02  0.2888E+02  0.4059E+03  0.2612E+03
      2.748  0.4968E+02  0.3560E+02  0.4179E+03  0.2698E+03
      2.989  0.2874E+02  0.4603E+02  0.4248E+03  0.2809E+03
      3.230  0.8248E+01  0.4969E+02  0.4268E+03  0.2928E+03
      3.471  0.3777E+02  0.4363E+02  0.4359E+03  0.3033E+03
      3.712  0.2634E+02  0.8644E+01  0.4422E+03  0.3054E+03
      3.953  0.3509E+02  0.1875E+02  0.4507E+03  0.3099E+03
      4.194  0.4018E+02  0.6923E+02  0.4603E+03  0.3266E+03
      4.434  0.3778E+02  0.5091E+02  0.4694E+03  0.3389E+03
      4.675  0.3656E+02  0.1297E+02  0.4783E+03  0.3420E+03
      4.916  0.2689E+02  0.1324E-03  0.4847E+03  0.3420E+03
      5.157  0.5257E+01  0.0000E+00  0.4860E+03  0.3420E+03
      5.398  0.1361E-04  0.0000E+00  0.4860E+03  0.3420E+03
      5.639  0.0000E+00  0.0000E+00  0.4860E+03  0.3420E+03
      5.880  0.0000E+00  0.0000E+00  0.4860E+03  0.3420E+03
      6.120  0.0000E+00  0.9885E-11  0.4860E+03  0.3420E+03
      6.361  0.0000E+00  0.8304E+00  0.4860E+03  0.3422E+03
      6.602  0.0000E+00  0.5121E+01  0.4860E+03  0.3434E+03
      6.843  0.0000E+00  0.8163E+01  0.4860E+03  0.3454E+03
      7.084  0.1622E-15  0.1942E+02  0.4860E+03  0.3501E+03
      7.325  0.2006E-01  0.5754E+02  0.4860E+03  0.3639E+03
      7.566  0.1337E+00  0.5965E+02  0.4860E+03  0.3783E+03
      7.806  0.5098E+00  0.6401E+02  0.4862E+03  0.3937E+03
      8.047  0.5001E+00  0.7365E+02  0.4863E+03  0.4115E+03
      8.288  0.2270E+01  0.7774E+02  0.4868E+03  0.4302E+03
      8.529  0.4313E+01  0.7187E+02  0.4879E+03  0.4475E+03
      8.770  0.9098E+01  0.6754E+02  0.4901E+03  0.4638E+03
      9.011  0.1512E+02  0.4961E+02  0.4937E+03  0.4757E+03
      9.252  0.1545E+02  0.3429E+02  0.4974E+03  0.4840E+03
      9.493  0.1942E+02  0.9759E+01  0.5021E+03  0.4863E+03
      9.733  0.1534E+02  0.5201E+01  0.5058E+03  0.4876E+03
      9.974  0.2331E+02  0.1106E+02  0.5114E+03  0.4902E+03
     10.215  0.1792E+02  0.1515E+02  0.5157E+03  0.4939E+03
     10.456  0.2117E+02  0.2526E+02  0.5208E+03  0.5000E+03
     10.697  0.1585E+02  0.2116E+02  0.5246E+03  0.5051E+03
     10.938  0.1479E+02  0.2101E+02  0.5282E+03  0.5101E+03
     11.179  0.2147E+02  0.3265E+02  0.5334E+03  0.5180E+03
     11.419  0.3121E+02  0.2043E+02  0.5409E+03  0.5229E+03
     11.660  0.2963E+02  0.1916E+02  0.5480E+03  0.5275E+03
     11.901  0.3195E+02  0.1207E+02  0.5557E+03  0.5304E+03
     12.142  0.3667E+02  0.2204E+02  0.5646E+03  0.5357E+03
     12.383  0.2259E+02  0.4377E+02  0.5700E+03  0.5463E+03
     12.624  0.2054E+02  0.3642E+02  0.5749E+03  0.5551E+03
     12.865  0.2623E+02  0.3448E+02  0.5813E+03  0.5634E+03
     13.105  0.2431E+02  0.2049E+02  0.5871E+03  0.5683E+03
     13.346  0.2842E+02  0.2293E+02  0.5940E+03  0.5738E+03
     13.587  0.2569E+02  0.3309E+02  0.6002E+03  0.5818E+03
     13.828  0.1904E+02  0.2686E+02  0.6047E+03  0.5883E+03
     14.069  0.5246E+01  0.2761E+02  0.6060E+03  0.5949E+03
     14.310  0.4115E-02  0.2136E+02  0.6060E+03  0.6001E+03
     14.551  0.0000E+00  0.2135E+02  0.6060E+03  0.6052E+03
     14.792  0.0000E+00  0.3314E+01  0.6060E+03  0.6060E+03
     15.032  0.0000E+00  0.2238E-05  0.6060E+03  0.6060E+03
     15.273  0.0000E+00  0.0000E+00  0.6060E+03  0.6060E+03
     15.514  0.0000E+00  0.0000E+00  0.6060E+03  0.6060E+03
     15.755  0.0000E+00  0.0000E+00  0.6060E+03  0.6060E+03
     15.996  0.0000E+00  0.0000E+00  0.6060E+03  0.6060E+03
     16.237  0.0000E+00  0.0000E+00  0.6060E+03  0.6060E+03
     16.478  0.0000E+00  0.0000E+00  0.6060E+03  0.6060E+03
     16.718  0.0000E+00  0.0000E+00  0.6060E+03  0.6060E+03
     16.959  0.0000E+00  0.0000E+00  0.6060E+03  0.6060E+03
     17.200  0.0000E+00  0.0000E+00  0.6060E+03  0.6060E+03
     17.441  0.0000E+00  0.0000E+00  0.6060E+03  0.6060E+03
     17.682  0.0000E+00  0.0000E+00  0.6060E+03  0.6060E+03
     17.923  0.0000E+00  0.0000E+00  0.6060E+03  0.6060E+03
