  99  99   0   0
  0.1430410E+02  0.1177748E-08  0.1177748E-08  0.1058004E-08  0.5000000E-15
  1.000000000000000E-004
  CAR 
 unknown system                          
     18.03179484    -54.34085704  301      5.30627022      1.00000000
    -54.341  0.0000E+00  0.0000E+00  0.0000E+00  0.0000E+00
    -54.100  0.0000E+00  0.0000E+00  0.0000E+00  0.0000E+00
    -53.858  0.0000E+00  0.0000E+00  0.0000E+00  0.0000E+00
    -53.617  0.0000E+00  0.0000E+00  0.0000E+00  0.0000E+00
    -53.376  0.0000E+00  0.0000E+00  0.0000E+00  0.0000E+00
    -53.135  0.0000E+00  0.0000E+00  0.0000E+00  0.0000E+00
    -52.893  0.0000E+00  0.0000E+00  0.0000E+00  0.0000E+00
    -52.652  0.0000E+00  0.0000E+00  0.0000E+00  0.0000E+00
    -52.411  0.0000E+00  0.0000E+00  0.0000E+00  0.0000E+00
    -52.170  0.0000E+00  0.0000E+00  0.0000E+00  0.0000E+00
    -51.928  0.0000E+00  0.0000E+00  0.0000E+00  0.0000E+00
    -51.687  0.0000E+00  0.0000E+00  0.0000E+00  0.0000E+00
    -51.446  0.0000E+00  0.0000E+00  0.0000E+00  0.0000E+00
    -51.205  0.4724E-03  0.0000E+00  0.1140E-03  0.0000E+00
    -50.963  0.1472E+03  0.0000E+00  0.3550E+02  0.0000E+00
    -50.722  0.2055E+01  0.0000E+00  0.3600E+02  0.0000E+00
    -50.481  0.0000E+00  0.0000E+00  0.3600E+02  0.0000E+00
    -50.240  0.0000E+00  0.0000E+00  0.3600E+02  0.0000E+00
    -49.998  0.0000E+00  0.0000E+00  0.3600E+02  0.0000E+00
    -49.757  0.2026E+01  0.0000E+00  0.3649E+02  0.0000E+00
    -49.516  0.2730E+03  0.0000E+00  0.1023E+03  0.0000E+00
    -49.275  0.2348E+02  0.0000E+00  0.1080E+03  0.0000E+00
    -49.034  0.0000E+00  0.0000E+00  0.1080E+03  0.0000E+00
    -48.792  0.0000E+00  0.0000E+00  0.1080E+03  0.0000E+00
    -48.551  0.0000E+00  0.0000E+00  0.1080E+03  0.0000E+00
    -48.310  0.0000E+00  0.0000E+00  0.1080E+03  0.0000E+00
    -48.069  0.0000E+00  0.0000E+00  0.1080E+03  0.0000E+00
    -47.827  0.0000E+00  0.0000E+00  0.1080E+03  0.0000E+00
    -47.586  0.0000E+00  0.0000E+00  0.1080E+03  0.0000E+00
    -47.345  0.0000E+00  0.0000E+00  0.1080E+03  0.0000E+00
    -47.104  0.0000E+00  0.0000E+00  0.1080E+03  0.0000E+00
    -46.862  0.0000E+00  0.0000E+00  0.1080E+03  0.0000E+00
    -46.621  0.0000E+00  0.0000E+00  0.1080E+03  0.0000E+00
    -46.380  0.0000E+00  0.6130E+00  0.1080E+03  0.1479E+00
    -46.139  0.0000E+00  0.1486E+03  0.1080E+03  0.3600E+02
    -45.897  0.0000E+00  0.7942E+02  0.1080E+03  0.5515E+02
    -45.656  0.0000E+00  0.2191E+03  0.1080E+03  0.1080E+03
    -45.415  0.0000E+00  0.0000E+00  0.1080E+03  0.1080E+03
    -45.174  0.0000E+00  0.0000E+00  0.1080E+03  0.1080E+03
    -44.932  0.0000E+00  0.0000E+00  0.1080E+03  0.1080E+03
    -44.691  0.0000E+00  0.0000E+00  0.1080E+03  0.1080E+03
    -44.450  0.0000E+00  0.0000E+00  0.1080E+03  0.1080E+03
    -44.209  0.0000E+00  0.0000E+00  0.1080E+03  0.1080E+03
    -43.967  0.0000E+00  0.0000E+00  0.1080E+03  0.1080E+03
    -43.726  0.0000E+00  0.0000E+00  0.1080E+03  0.1080E+03
    -43.485  0.0000E+00  0.0000E+00  0.1080E+03  0.1080E+03
    -43.244  0.0000E+00  0.0000E+00  0.1080E+03  0.1080E+03
    -43.002  0.0000E+00  0.0000E+00  0.1080E+03  0.1080E+03
    -42.761  0.0000E+00  0.0000E+00  0.1080E+03  0.1080E+03
    -42.520  0.0000E+00  0.0000E+00  0.1080E+03  0.1080E+03
    -42.279  0.0000E+00  0.0000E+00  0.1080E+03  0.1080E+03
    -42.038  0.0000E+00  0.0000E+00  0.1080E+03  0.1080E+03
    -41.796  0.0000E+00  0.0000E+00  0.1080E+03  0.1080E+03
    -41.555  0.0000E+00  0.0000E+00  0.1080E+03  0.1080E+03
    -41.314  0.0000E+00  0.0000E+00  0.1080E+03  0.1080E+03
    -41.073  0.0000E+00  0.0000E+00  0.1080E+03  0.1080E+03
    -40.831  0.0000E+00  0.0000E+00  0.1080E+03  0.1080E+03
    -40.590  0.0000E+00  0.0000E+00  0.1080E+03  0.1080E+03
    -40.349  0.0000E+00  0.0000E+00  0.1080E+03  0.1080E+03
    -40.108  0.2608E-08  0.1626E-08  0.1080E+03  0.1080E+03
    -39.866  0.4613E+02  0.4411E+02  0.1191E+03  0.1186E+03
    -39.625  0.2848E+02  0.3050E+02  0.1260E+03  0.1260E+03
    -39.384  0.0000E+00  0.0000E+00  0.1260E+03  0.1260E+03
    -39.143  0.0000E+00  0.0000E+00  0.1260E+03  0.1260E+03
    -38.901  0.0000E+00  0.0000E+00  0.1260E+03  0.1260E+03
    -38.660  0.0000E+00  0.0000E+00  0.1260E+03  0.1260E+03
    -38.419  0.0000E+00  0.0000E+00  0.1260E+03  0.1260E+03
    -38.178  0.0000E+00  0.0000E+00  0.1260E+03  0.1260E+03
    -37.936  0.0000E+00  0.0000E+00  0.1260E+03  0.1260E+03
    -37.695  0.0000E+00  0.0000E+00  0.1260E+03  0.1260E+03
    -37.454  0.0000E+00  0.0000E+00  0.1260E+03  0.1260E+03
    -37.213  0.0000E+00  0.0000E+00  0.1260E+03  0.1260E+03
    -36.971  0.0000E+00  0.0000E+00  0.1260E+03  0.1260E+03
    -36.730  0.0000E+00  0.0000E+00  0.1260E+03  0.1260E+03
    -36.489  0.0000E+00  0.0000E+00  0.1260E+03  0.1260E+03
    -36.248  0.0000E+00  0.0000E+00  0.1260E+03  0.1260E+03
    -36.006  0.0000E+00  0.0000E+00  0.1260E+03  0.1260E+03
    -35.765  0.0000E+00  0.0000E+00  0.1260E+03  0.1260E+03
    -35.524  0.0000E+00  0.0000E+00  0.1260E+03  0.1260E+03
    -35.283  0.0000E+00  0.0000E+00  0.1260E+03  0.1260E+03
    -35.041  0.0000E+00  0.0000E+00  0.1260E+03  0.1260E+03
    -34.800  0.0000E+00  0.0000E+00  0.1260E+03  0.1260E+03
    -34.559  0.0000E+00  0.0000E+00  0.1260E+03  0.1260E+03
    -34.318  0.0000E+00  0.0000E+00  0.1260E+03  0.1260E+03
    -34.077  0.0000E+00  0.0000E+00  0.1260E+03  0.1260E+03
    -33.835  0.0000E+00  0.0000E+00  0.1260E+03  0.1260E+03
    -33.594  0.0000E+00  0.0000E+00  0.1260E+03  0.1260E+03
    -33.353  0.0000E+00  0.0000E+00  0.1260E+03  0.1260E+03
    -33.112  0.0000E+00  0.0000E+00  0.1260E+03  0.1260E+03
    -32.870  0.0000E+00  0.0000E+00  0.1260E+03  0.1260E+03
    -32.629  0.0000E+00  0.0000E+00  0.1260E+03  0.1260E+03
    -32.388  0.0000E+00  0.0000E+00  0.1260E+03  0.1260E+03
    -32.147  0.0000E+00  0.0000E+00  0.1260E+03  0.1260E+03
    -31.905  0.0000E+00  0.0000E+00  0.1260E+03  0.1260E+03
    -31.664  0.0000E+00  0.0000E+00  0.1260E+03  0.1260E+03
    -31.423  0.0000E+00  0.0000E+00  0.1260E+03  0.1260E+03
    -31.182  0.0000E+00  0.0000E+00  0.1260E+03  0.1260E+03
    -30.940  0.0000E+00  0.0000E+00  0.1260E+03  0.1260E+03
    -30.699  0.0000E+00  0.0000E+00  0.1260E+03  0.1260E+03
    -30.458  0.0000E+00  0.0000E+00  0.1260E+03  0.1260E+03
    -30.217  0.0000E+00  0.0000E+00  0.1260E+03  0.1260E+03
    -29.975  0.0000E+00  0.0000E+00  0.1260E+03  0.1260E+03
    -29.734  0.0000E+00  0.0000E+00  0.1260E+03  0.1260E+03
    -29.493  0.0000E+00  0.0000E+00  0.1260E+03  0.1260E+03
    -29.252  0.0000E+00  0.0000E+00  0.1260E+03  0.1260E+03
    -29.010  0.0000E+00  0.0000E+00  0.1260E+03  0.1260E+03
    -28.769  0.0000E+00  0.0000E+00  0.1260E+03  0.1260E+03
    -28.528  0.0000E+00  0.0000E+00  0.1260E+03  0.1260E+03
    -28.287  0.0000E+00  0.0000E+00  0.1260E+03  0.1260E+03
    -28.045  0.0000E+00  0.0000E+00  0.1260E+03  0.1260E+03
    -27.804  0.0000E+00  0.0000E+00  0.1260E+03  0.1260E+03
    -27.563  0.0000E+00  0.0000E+00  0.1260E+03  0.1260E+03
    -27.322  0.0000E+00  0.0000E+00  0.1260E+03  0.1260E+03
    -27.080  0.0000E+00  0.0000E+00  0.1260E+03  0.1260E+03
    -26.839  0.0000E+00  0.0000E+00  0.1260E+03  0.1260E+03
    -26.598  0.0000E+00  0.0000E+00  0.1260E+03  0.1260E+03
    -26.357  0.0000E+00  0.0000E+00  0.1260E+03  0.1260E+03
    -26.116  0.0000E+00  0.0000E+00  0.1260E+03  0.1260E+03
    -25.874  0.0000E+00  0.0000E+00  0.1260E+03  0.1260E+03
    -25.633  0.0000E+00  0.0000E+00  0.1260E+03  0.1260E+03
    -25.392  0.0000E+00  0.0000E+00  0.1260E+03  0.1260E+03
    -25.151  0.0000E+00  0.0000E+00  0.1260E+03  0.1260E+03
    -24.909  0.0000E+00  0.0000E+00  0.1260E+03  0.1260E+03
    -24.668  0.0000E+00  0.0000E+00  0.1260E+03  0.1260E+03
    -24.427  0.0000E+00  0.0000E+00  0.1260E+03  0.1260E+03
    -24.186  0.0000E+00  0.0000E+00  0.1260E+03  0.1260E+03
    -23.944  0.0000E+00  0.0000E+00  0.1260E+03  0.1260E+03
    -23.703  0.0000E+00  0.0000E+00  0.1260E+03  0.1260E+03
    -23.462  0.0000E+00  0.0000E+00  0.1260E+03  0.1260E+03
    -23.221  0.0000E+00  0.0000E+00  0.1260E+03  0.1260E+03
    -22.979  0.0000E+00  0.0000E+00  0.1260E+03  0.1260E+03
    -22.738  0.0000E+00  0.0000E+00  0.1260E+03  0.1260E+03
    -22.497  0.0000E+00  0.0000E+00  0.1260E+03  0.1260E+03
    -22.256  0.0000E+00  0.0000E+00  0.1260E+03  0.1260E+03
    -22.014  0.0000E+00  0.0000E+00  0.1260E+03  0.1260E+03
    -21.773  0.0000E+00  0.0000E+00  0.1260E+03  0.1260E+03
    -21.532  0.0000E+00  0.0000E+00  0.1260E+03  0.1260E+03
    -21.291  0.0000E+00  0.0000E+00  0.1260E+03  0.1260E+03
    -21.049  0.0000E+00  0.0000E+00  0.1260E+03  0.1260E+03
    -20.808  0.0000E+00  0.0000E+00  0.1260E+03  0.1260E+03
    -20.567  0.0000E+00  0.0000E+00  0.1260E+03  0.1260E+03
    -20.326  0.0000E+00  0.0000E+00  0.1260E+03  0.1260E+03
    -20.084  0.0000E+00  0.0000E+00  0.1260E+03  0.1260E+03
    -19.843  0.0000E+00  0.0000E+00  0.1260E+03  0.1260E+03
    -19.602  0.0000E+00  0.0000E+00  0.1260E+03  0.1260E+03
    -19.361  0.0000E+00  0.0000E+00  0.1260E+03  0.1260E+03
    -19.119  0.0000E+00  0.0000E+00  0.1260E+03  0.1260E+03
    -18.878  0.0000E+00  0.0000E+00  0.1260E+03  0.1260E+03
    -18.637  0.0000E+00  0.0000E+00  0.1260E+03  0.1260E+03
    -18.396  0.0000E+00  0.0000E+00  0.1260E+03  0.1260E+03
    -18.155  0.0000E+00  0.0000E+00  0.1260E+03  0.1260E+03
    -17.913  0.0000E+00  0.0000E+00  0.1260E+03  0.1260E+03
    -17.672  0.0000E+00  0.0000E+00  0.1260E+03  0.1260E+03
    -17.431  0.0000E+00  0.0000E+00  0.1260E+03  0.1260E+03
    -17.190  0.0000E+00  0.0000E+00  0.1260E+03  0.1260E+03
    -16.948  0.0000E+00  0.0000E+00  0.1260E+03  0.1260E+03
    -16.707  0.0000E+00  0.0000E+00  0.1260E+03  0.1260E+03
    -16.466  0.0000E+00  0.0000E+00  0.1260E+03  0.1260E+03
    -16.225  0.0000E+00  0.0000E+00  0.1260E+03  0.1260E+03
    -15.983  0.0000E+00  0.0000E+00  0.1260E+03  0.1260E+03
    -15.742  0.0000E+00  0.0000E+00  0.1260E+03  0.1260E+03
    -15.501  0.0000E+00  0.0000E+00  0.1260E+03  0.1260E+03
    -15.260  0.0000E+00  0.0000E+00  0.1260E+03  0.1260E+03
    -15.018  0.0000E+00  0.0000E+00  0.1260E+03  0.1260E+03
    -14.777  0.0000E+00  0.0000E+00  0.1260E+03  0.1260E+03
    -14.536  0.0000E+00  0.0000E+00  0.1260E+03  0.1260E+03
    -14.295  0.0000E+00  0.0000E+00  0.1260E+03  0.1260E+03
    -14.053  0.0000E+00  0.0000E+00  0.1260E+03  0.1260E+03
    -13.812  0.0000E+00  0.0000E+00  0.1260E+03  0.1260E+03
    -13.571  0.0000E+00  0.0000E+00  0.1260E+03  0.1260E+03
    -13.330  0.2654E-01  0.0000E+00  0.1260E+03  0.1260E+03
    -13.088  0.4022E+02  0.5180E-12  0.1357E+03  0.1260E+03
    -12.847  0.3437E+02  0.3496E+01  0.1440E+03  0.1268E+03
    -12.606  0.3727E-02  0.6700E+02  0.1440E+03  0.1430E+03
    -12.365  0.0000E+00  0.4120E+01  0.1440E+03  0.1440E+03
    -12.123  0.0000E+00  0.0000E+00  0.1440E+03  0.1440E+03
    -11.882  0.0000E+00  0.0000E+00  0.1440E+03  0.1440E+03
    -11.641  0.0000E+00  0.0000E+00  0.1440E+03  0.1440E+03
    -11.400  0.0000E+00  0.0000E+00  0.1440E+03  0.1440E+03
    -11.159  0.0000E+00  0.0000E+00  0.1440E+03  0.1440E+03
    -10.917  0.0000E+00  0.0000E+00  0.1440E+03  0.1440E+03
    -10.676  0.0000E+00  0.0000E+00  0.1440E+03  0.1440E+03
    -10.435  0.0000E+00  0.0000E+00  0.1440E+03  0.1440E+03
    -10.194  0.0000E+00  0.0000E+00  0.1440E+03  0.1440E+03
     -9.952  0.0000E+00  0.0000E+00  0.1440E+03  0.1440E+03
     -9.711  0.0000E+00  0.0000E+00  0.1440E+03  0.1440E+03
     -9.470  0.0000E+00  0.0000E+00  0.1440E+03  0.1440E+03
     -9.229  0.0000E+00  0.0000E+00  0.1440E+03  0.1440E+03
     -8.987  0.0000E+00  0.0000E+00  0.1440E+03  0.1440E+03
     -8.746  0.0000E+00  0.0000E+00  0.1440E+03  0.1440E+03
     -8.505  0.0000E+00  0.0000E+00  0.1440E+03  0.1440E+03
     -8.264  0.0000E+00  0.0000E+00  0.1440E+03  0.1440E+03
     -8.022  0.0000E+00  0.0000E+00  0.1440E+03  0.1440E+03
     -7.781  0.2008E-06  0.0000E+00  0.1440E+03  0.1440E+03
     -7.540  0.2161E+01  0.4349E-07  0.1445E+03  0.1440E+03
     -7.299  0.2448E+02  0.2085E+01  0.1504E+03  0.1445E+03
     -7.057  0.2867E+02  0.2643E+02  0.1573E+03  0.1509E+03
     -6.816  0.4423E+02  0.2675E+02  0.1680E+03  0.1573E+03
     -6.575  0.1238E+02  0.3429E+02  0.1710E+03  0.1656E+03
     -6.334  0.0000E+00  0.2236E+02  0.1710E+03  0.1710E+03
     -6.092  0.0000E+00  0.1316E-02  0.1710E+03  0.1710E+03
     -5.851  0.0000E+00  0.0000E+00  0.1710E+03  0.1710E+03
     -5.610  0.0000E+00  0.0000E+00  0.1710E+03  0.1710E+03
     -5.369  0.0000E+00  0.0000E+00  0.1710E+03  0.1710E+03
     -5.127  0.0000E+00  0.0000E+00  0.1710E+03  0.1710E+03
     -4.886  0.0000E+00  0.0000E+00  0.1710E+03  0.1710E+03
     -4.645  0.0000E+00  0.0000E+00  0.1710E+03  0.1710E+03
     -4.404  0.0000E+00  0.0000E+00  0.1710E+03  0.1710E+03
     -4.162  0.0000E+00  0.0000E+00  0.1710E+03  0.1710E+03
     -3.921  0.0000E+00  0.0000E+00  0.1710E+03  0.1710E+03
     -3.680  0.0000E+00  0.0000E+00  0.1710E+03  0.1710E+03
     -3.439  0.0000E+00  0.0000E+00  0.1710E+03  0.1710E+03
     -3.198  0.0000E+00  0.0000E+00  0.1710E+03  0.1710E+03
     -2.956  0.0000E+00  0.0000E+00  0.1710E+03  0.1710E+03
     -2.715  0.0000E+00  0.0000E+00  0.1710E+03  0.1710E+03
     -2.474  0.0000E+00  0.0000E+00  0.1710E+03  0.1710E+03
     -2.233  0.1023E-14  0.0000E+00  0.1710E+03  0.1710E+03
     -1.991  0.7433E+00  0.0000E+00  0.1712E+03  0.1710E+03
     -1.750  0.3046E+02  0.0000E+00  0.1785E+03  0.1710E+03
     -1.509  0.1750E+02  0.0000E+00  0.1827E+03  0.1710E+03
     -1.268  0.1612E+02  0.0000E+00  0.1866E+03  0.1710E+03
     -1.026  0.2710E+02  0.0000E+00  0.1932E+03  0.1710E+03
     -0.785  0.5886E+02  0.0000E+00  0.2074E+03  0.1710E+03
     -0.544  0.6198E+02  0.3742E-01  0.2223E+03  0.1710E+03
     -0.303  0.4772E+02  0.1643E+02  0.2338E+03  0.1750E+03
     -0.061  0.7972E+02  0.1686E+02  0.2531E+03  0.1790E+03
      0.180  0.9436E+02  0.1554E+02  0.2758E+03  0.1828E+03
      0.421  0.7815E+02  0.2424E+02  0.2947E+03  0.1886E+03
      0.662  0.7564E+02  0.3838E+02  0.3129E+03  0.1979E+03
      0.904  0.5104E+02  0.4579E+02  0.3252E+03  0.2089E+03
      1.145  0.3519E+02  0.3926E+02  0.3337E+03  0.2184E+03
      1.386  0.4273E+02  0.2998E+02  0.3440E+03  0.2256E+03
      1.627  0.4676E+02  0.2761E+02  0.3553E+03  0.2323E+03
      1.869  0.6494E+02  0.3343E+02  0.3710E+03  0.2404E+03
      2.110  0.7914E+02  0.3994E+02  0.3901E+03  0.2500E+03
      2.351  0.4470E+02  0.2483E+02  0.4009E+03  0.2560E+03
      2.592  0.3666E+02  0.3056E+02  0.4097E+03  0.2634E+03
      2.834  0.5051E+02  0.4449E+02  0.4219E+03  0.2741E+03
      3.075  0.1411E+02  0.4967E+02  0.4253E+03  0.2861E+03
      3.316  0.1504E+02  0.4342E+02  0.4289E+03  0.2966E+03
      3.557  0.3841E+02  0.3259E+02  0.4382E+03  0.3044E+03
      3.799  0.2681E+02  0.7184E+01  0.4447E+03  0.3062E+03
      4.040  0.4105E+02  0.3662E+02  0.4546E+03  0.3150E+03
      4.281  0.3783E+02  0.7632E+02  0.4637E+03  0.3334E+03
      4.522  0.3909E+02  0.3110E+02  0.4731E+03  0.3409E+03
      4.763  0.3226E+02  0.4538E+01  0.4809E+03  0.3420E+03
      5.005  0.2034E+02  0.0000E+00  0.4858E+03  0.3420E+03
      5.246  0.7883E+00  0.0000E+00  0.4860E+03  0.3420E+03
      5.487  0.0000E+00  0.0000E+00  0.4860E+03  0.3420E+03
      5.728  0.0000E+00  0.0000E+00  0.4860E+03  0.3420E+03
      5.970  0.0000E+00  0.0000E+00  0.4860E+03  0.3420E+03
      6.211  0.0000E+00  0.1663E-04  0.4860E+03  0.3420E+03
      6.452  0.0000E+00  0.2113E+01  0.4860E+03  0.3425E+03
      6.693  0.0000E+00  0.5281E+01  0.4860E+03  0.3438E+03
      6.935  0.0000E+00  0.1439E+02  0.4860E+03  0.3473E+03
      7.176  0.7283E-08  0.2903E+02  0.4860E+03  0.3543E+03
      7.417  0.1430E+00  0.5957E+02  0.4860E+03  0.3686E+03
      7.658  0.1088E-01  0.6696E+02  0.4860E+03  0.3848E+03
      7.900  0.6502E+00  0.6469E+02  0.4862E+03  0.4004E+03
      8.141  0.1305E+01  0.7543E+02  0.4865E+03  0.4186E+03
      8.382  0.2847E+01  0.8308E+02  0.4872E+03  0.4386E+03
      8.623  0.5222E+01  0.6574E+02  0.4885E+03  0.4545E+03
      8.865  0.1125E+02  0.6131E+02  0.4912E+03  0.4693E+03
      9.106  0.1452E+02  0.4207E+02  0.4947E+03  0.4794E+03
      9.347  0.2015E+02  0.2462E+02  0.4995E+03  0.4854E+03
      9.588  0.1615E+02  0.5823E+01  0.5034E+03  0.4868E+03
      9.830  0.1819E+02  0.7597E+01  0.5078E+03  0.4886E+03
     10.071  0.2461E+02  0.1168E+02  0.5138E+03  0.4914E+03
     10.312  0.1832E+02  0.2169E+02  0.5182E+03  0.4966E+03
     10.553  0.1988E+02  0.2139E+02  0.5230E+03  0.5018E+03
     10.795  0.1172E+02  0.2267E+02  0.5258E+03  0.5073E+03
     11.036  0.1856E+02  0.2818E+02  0.5303E+03  0.5141E+03
     11.277  0.2516E+02  0.2482E+02  0.5363E+03  0.5201E+03
     11.518  0.3215E+02  0.2098E+02  0.5441E+03  0.5251E+03
     11.759  0.2735E+02  0.1500E+02  0.5507E+03  0.5287E+03
     12.001  0.3395E+02  0.1188E+02  0.5589E+03  0.5316E+03
     12.242  0.3264E+02  0.3163E+02  0.5668E+03  0.5392E+03
     12.483  0.2271E+02  0.4612E+02  0.5722E+03  0.5504E+03
     12.724  0.2052E+02  0.3586E+02  0.5772E+03  0.5590E+03
     12.966  0.2408E+02  0.2541E+02  0.5830E+03  0.5651E+03
     13.207  0.2802E+02  0.2073E+02  0.5898E+03  0.5701E+03
     13.448  0.2798E+02  0.2880E+02  0.5965E+03  0.5771E+03
     13.689  0.2255E+02  0.3083E+02  0.6020E+03  0.5845E+03
     13.931  0.1514E+02  0.2674E+02  0.6056E+03  0.5910E+03
     14.172  0.1608E+01  0.2444E+02  0.6060E+03  0.5969E+03
     14.413  0.0000E+00  0.2246E+02  0.6060E+03  0.6023E+03
     14.654  0.0000E+00  0.1455E+02  0.6060E+03  0.6058E+03
     14.896  0.0000E+00  0.7832E+00  0.6060E+03  0.6060E+03
     15.137  0.0000E+00  0.2166E-05  0.6060E+03  0.6060E+03
     15.378  0.0000E+00  0.0000E+00  0.6060E+03  0.6060E+03
     15.619  0.0000E+00  0.0000E+00  0.6060E+03  0.6060E+03
     15.861  0.0000E+00  0.0000E+00  0.6060E+03  0.6060E+03
     16.102  0.0000E+00  0.0000E+00  0.6060E+03  0.6060E+03
     16.343  0.0000E+00  0.0000E+00  0.6060E+03  0.6060E+03
     16.584  0.0000E+00  0.0000E+00  0.6060E+03  0.6060E+03
     16.826  0.0000E+00  0.0000E+00  0.6060E+03  0.6060E+03
     17.067  0.0000E+00  0.0000E+00  0.6060E+03  0.6060E+03
     17.308  0.0000E+00  0.0000E+00  0.6060E+03  0.6060E+03
     17.549  0.0000E+00  0.0000E+00  0.6060E+03  0.6060E+03
     17.791  0.0000E+00  0.0000E+00  0.6060E+03  0.6060E+03
     18.032  0.0000E+00  0.0000E+00  0.6060E+03  0.6060E+03
