  88  88   0   0
  0.1431748E+02  0.1111223E-08  0.1111745E-08  0.1056954E-08  0.5000000E-15
  1.000000000000000E-004
  CAR 
 unknown system                          
     17.89980947    -54.34144995  301      5.19738802      1.00000000
    -54.341  0.0000E+00  0.0000E+00  0.0000E+00  0.0000E+00
    -54.101  0.0000E+00  0.0000E+00  0.0000E+00  0.0000E+00
    -53.860  0.0000E+00  0.0000E+00  0.0000E+00  0.0000E+00
    -53.619  0.0000E+00  0.0000E+00  0.0000E+00  0.0000E+00
    -53.378  0.0000E+00  0.0000E+00  0.0000E+00  0.0000E+00
    -53.137  0.0000E+00  0.0000E+00  0.0000E+00  0.0000E+00
    -52.897  0.0000E+00  0.0000E+00  0.0000E+00  0.0000E+00
    -52.656  0.0000E+00  0.0000E+00  0.0000E+00  0.0000E+00
    -52.415  0.0000E+00  0.0000E+00  0.0000E+00  0.0000E+00
    -52.174  0.0000E+00  0.0000E+00  0.0000E+00  0.0000E+00
    -51.933  0.0000E+00  0.0000E+00  0.0000E+00  0.0000E+00
    -51.693  0.0000E+00  0.0000E+00  0.0000E+00  0.0000E+00
    -51.452  0.0000E+00  0.0000E+00  0.0000E+00  0.0000E+00
    -51.211  0.3360E-03  0.0000E+00  0.8091E-04  0.0000E+00
    -50.970  0.1308E+03  0.0000E+00  0.3149E+02  0.0000E+00
    -50.729  0.2097E+01  0.0000E+00  0.3200E+02  0.0000E+00
    -50.489  0.0000E+00  0.0000E+00  0.3200E+02  0.0000E+00
    -50.248  0.0000E+00  0.0000E+00  0.3200E+02  0.0000E+00
    -50.007  0.0000E+00  0.0000E+00  0.3200E+02  0.0000E+00
    -49.766  0.1818E+01  0.0000E+00  0.3244E+02  0.0000E+00
    -49.525  0.2354E+03  0.0000E+00  0.8913E+02  0.0000E+00
    -49.285  0.2854E+02  0.0000E+00  0.9600E+02  0.0000E+00
    -49.044  0.0000E+00  0.0000E+00  0.9600E+02  0.0000E+00
    -48.803  0.0000E+00  0.0000E+00  0.9600E+02  0.0000E+00
    -48.562  0.0000E+00  0.0000E+00  0.9600E+02  0.0000E+00
    -48.321  0.0000E+00  0.0000E+00  0.9600E+02  0.0000E+00
    -48.081  0.0000E+00  0.0000E+00  0.9600E+02  0.0000E+00
    -47.840  0.0000E+00  0.0000E+00  0.9600E+02  0.0000E+00
    -47.599  0.0000E+00  0.0000E+00  0.9600E+02  0.0000E+00
    -47.358  0.0000E+00  0.0000E+00  0.9600E+02  0.0000E+00
    -47.117  0.0000E+00  0.0000E+00  0.9600E+02  0.0000E+00
    -46.877  0.0000E+00  0.0000E+00  0.9600E+02  0.0000E+00
    -46.636  0.0000E+00  0.0000E+00  0.9600E+02  0.0000E+00
    -46.395  0.0000E+00  0.3317E+00  0.9600E+02  0.7988E-01
    -46.154  0.0000E+00  0.1325E+03  0.9600E+02  0.3199E+02
    -45.913  0.0000E+00  0.5842E+02  0.9600E+02  0.4606E+02
    -45.672  0.0000E+00  0.2074E+03  0.9600E+02  0.9600E+02
    -45.432  0.0000E+00  0.0000E+00  0.9600E+02  0.9600E+02
    -45.191  0.0000E+00  0.0000E+00  0.9600E+02  0.9600E+02
    -44.950  0.0000E+00  0.0000E+00  0.9600E+02  0.9600E+02
    -44.709  0.0000E+00  0.0000E+00  0.9600E+02  0.9600E+02
    -44.468  0.0000E+00  0.0000E+00  0.9600E+02  0.9600E+02
    -44.228  0.0000E+00  0.0000E+00  0.9600E+02  0.9600E+02
    -43.987  0.0000E+00  0.0000E+00  0.9600E+02  0.9600E+02
    -43.746  0.0000E+00  0.0000E+00  0.9600E+02  0.9600E+02
    -43.505  0.0000E+00  0.0000E+00  0.9600E+02  0.9600E+02
    -43.264  0.0000E+00  0.0000E+00  0.9600E+02  0.9600E+02
    -43.024  0.0000E+00  0.0000E+00  0.9600E+02  0.9600E+02
    -42.783  0.0000E+00  0.0000E+00  0.9600E+02  0.9600E+02
    -42.542  0.0000E+00  0.0000E+00  0.9600E+02  0.9600E+02
    -42.301  0.0000E+00  0.0000E+00  0.9600E+02  0.9600E+02
    -42.060  0.0000E+00  0.0000E+00  0.9600E+02  0.9600E+02
    -41.820  0.0000E+00  0.0000E+00  0.9600E+02  0.9600E+02
    -41.579  0.0000E+00  0.0000E+00  0.9600E+02  0.9600E+02
    -41.338  0.0000E+00  0.0000E+00  0.9600E+02  0.9600E+02
    -41.097  0.0000E+00  0.0000E+00  0.9600E+02  0.9600E+02
    -40.856  0.0000E+00  0.0000E+00  0.9600E+02  0.9600E+02
    -40.616  0.0000E+00  0.0000E+00  0.9600E+02  0.9600E+02
    -40.375  0.0000E+00  0.0000E+00  0.9600E+02  0.9600E+02
    -40.134  0.1115E-11  0.7063E-12  0.9600E+02  0.9600E+02
    -39.893  0.1410E+02  0.1300E+02  0.9939E+02  0.9913E+02
    -39.652  0.5235E+02  0.5345E+02  0.1120E+03  0.1120E+03
    -39.412  0.0000E+00  0.0000E+00  0.1120E+03  0.1120E+03
    -39.171  0.0000E+00  0.0000E+00  0.1120E+03  0.1120E+03
    -38.930  0.0000E+00  0.0000E+00  0.1120E+03  0.1120E+03
    -38.689  0.0000E+00  0.0000E+00  0.1120E+03  0.1120E+03
    -38.448  0.0000E+00  0.0000E+00  0.1120E+03  0.1120E+03
    -38.208  0.0000E+00  0.0000E+00  0.1120E+03  0.1120E+03
    -37.967  0.0000E+00  0.0000E+00  0.1120E+03  0.1120E+03
    -37.726  0.0000E+00  0.0000E+00  0.1120E+03  0.1120E+03
    -37.485  0.0000E+00  0.0000E+00  0.1120E+03  0.1120E+03
    -37.244  0.0000E+00  0.0000E+00  0.1120E+03  0.1120E+03
    -37.004  0.0000E+00  0.0000E+00  0.1120E+03  0.1120E+03
    -36.763  0.0000E+00  0.0000E+00  0.1120E+03  0.1120E+03
    -36.522  0.0000E+00  0.0000E+00  0.1120E+03  0.1120E+03
    -36.281  0.0000E+00  0.0000E+00  0.1120E+03  0.1120E+03
    -36.040  0.0000E+00  0.0000E+00  0.1120E+03  0.1120E+03
    -35.800  0.0000E+00  0.0000E+00  0.1120E+03  0.1120E+03
    -35.559  0.0000E+00  0.0000E+00  0.1120E+03  0.1120E+03
    -35.318  0.0000E+00  0.0000E+00  0.1120E+03  0.1120E+03
    -35.077  0.0000E+00  0.0000E+00  0.1120E+03  0.1120E+03
    -34.836  0.0000E+00  0.0000E+00  0.1120E+03  0.1120E+03
    -34.596  0.0000E+00  0.0000E+00  0.1120E+03  0.1120E+03
    -34.355  0.0000E+00  0.0000E+00  0.1120E+03  0.1120E+03
    -34.114  0.0000E+00  0.0000E+00  0.1120E+03  0.1120E+03
    -33.873  0.0000E+00  0.0000E+00  0.1120E+03  0.1120E+03
    -33.632  0.0000E+00  0.0000E+00  0.1120E+03  0.1120E+03
    -33.391  0.0000E+00  0.0000E+00  0.1120E+03  0.1120E+03
    -33.151  0.0000E+00  0.0000E+00  0.1120E+03  0.1120E+03
    -32.910  0.0000E+00  0.0000E+00  0.1120E+03  0.1120E+03
    -32.669  0.0000E+00  0.0000E+00  0.1120E+03  0.1120E+03
    -32.428  0.0000E+00  0.0000E+00  0.1120E+03  0.1120E+03
    -32.187  0.0000E+00  0.0000E+00  0.1120E+03  0.1120E+03
    -31.947  0.0000E+00  0.0000E+00  0.1120E+03  0.1120E+03
    -31.706  0.0000E+00  0.0000E+00  0.1120E+03  0.1120E+03
    -31.465  0.0000E+00  0.0000E+00  0.1120E+03  0.1120E+03
    -31.224  0.0000E+00  0.0000E+00  0.1120E+03  0.1120E+03
    -30.983  0.0000E+00  0.0000E+00  0.1120E+03  0.1120E+03
    -30.743  0.0000E+00  0.0000E+00  0.1120E+03  0.1120E+03
    -30.502  0.0000E+00  0.0000E+00  0.1120E+03  0.1120E+03
    -30.261  0.0000E+00  0.0000E+00  0.1120E+03  0.1120E+03
    -30.020  0.0000E+00  0.0000E+00  0.1120E+03  0.1120E+03
    -29.779  0.0000E+00  0.0000E+00  0.1120E+03  0.1120E+03
    -29.539  0.0000E+00  0.0000E+00  0.1120E+03  0.1120E+03
    -29.298  0.0000E+00  0.0000E+00  0.1120E+03  0.1120E+03
    -29.057  0.0000E+00  0.0000E+00  0.1120E+03  0.1120E+03
    -28.816  0.0000E+00  0.0000E+00  0.1120E+03  0.1120E+03
    -28.575  0.0000E+00  0.0000E+00  0.1120E+03  0.1120E+03
    -28.335  0.0000E+00  0.0000E+00  0.1120E+03  0.1120E+03
    -28.094  0.0000E+00  0.0000E+00  0.1120E+03  0.1120E+03
    -27.853  0.0000E+00  0.0000E+00  0.1120E+03  0.1120E+03
    -27.612  0.0000E+00  0.0000E+00  0.1120E+03  0.1120E+03
    -27.371  0.0000E+00  0.0000E+00  0.1120E+03  0.1120E+03
    -27.131  0.0000E+00  0.0000E+00  0.1120E+03  0.1120E+03
    -26.890  0.0000E+00  0.0000E+00  0.1120E+03  0.1120E+03
    -26.649  0.0000E+00  0.0000E+00  0.1120E+03  0.1120E+03
    -26.408  0.0000E+00  0.0000E+00  0.1120E+03  0.1120E+03
    -26.167  0.0000E+00  0.0000E+00  0.1120E+03  0.1120E+03
    -25.927  0.0000E+00  0.0000E+00  0.1120E+03  0.1120E+03
    -25.686  0.0000E+00  0.0000E+00  0.1120E+03  0.1120E+03
    -25.445  0.0000E+00  0.0000E+00  0.1120E+03  0.1120E+03
    -25.204  0.0000E+00  0.0000E+00  0.1120E+03  0.1120E+03
    -24.963  0.0000E+00  0.0000E+00  0.1120E+03  0.1120E+03
    -24.723  0.0000E+00  0.0000E+00  0.1120E+03  0.1120E+03
    -24.482  0.0000E+00  0.0000E+00  0.1120E+03  0.1120E+03
    -24.241  0.0000E+00  0.0000E+00  0.1120E+03  0.1120E+03
    -24.000  0.0000E+00  0.0000E+00  0.1120E+03  0.1120E+03
    -23.759  0.0000E+00  0.0000E+00  0.1120E+03  0.1120E+03
    -23.519  0.0000E+00  0.0000E+00  0.1120E+03  0.1120E+03
    -23.278  0.0000E+00  0.0000E+00  0.1120E+03  0.1120E+03
    -23.037  0.0000E+00  0.0000E+00  0.1120E+03  0.1120E+03
    -22.796  0.0000E+00  0.0000E+00  0.1120E+03  0.1120E+03
    -22.555  0.0000E+00  0.0000E+00  0.1120E+03  0.1120E+03
    -22.314  0.0000E+00  0.0000E+00  0.1120E+03  0.1120E+03
    -22.074  0.0000E+00  0.0000E+00  0.1120E+03  0.1120E+03
    -21.833  0.0000E+00  0.0000E+00  0.1120E+03  0.1120E+03
    -21.592  0.0000E+00  0.0000E+00  0.1120E+03  0.1120E+03
    -21.351  0.0000E+00  0.0000E+00  0.1120E+03  0.1120E+03
    -21.110  0.0000E+00  0.0000E+00  0.1120E+03  0.1120E+03
    -20.870  0.0000E+00  0.0000E+00  0.1120E+03  0.1120E+03
    -20.629  0.0000E+00  0.0000E+00  0.1120E+03  0.1120E+03
    -20.388  0.0000E+00  0.0000E+00  0.1120E+03  0.1120E+03
    -20.147  0.0000E+00  0.0000E+00  0.1120E+03  0.1120E+03
    -19.906  0.0000E+00  0.0000E+00  0.1120E+03  0.1120E+03
    -19.666  0.0000E+00  0.0000E+00  0.1120E+03  0.1120E+03
    -19.425  0.0000E+00  0.0000E+00  0.1120E+03  0.1120E+03
    -19.184  0.0000E+00  0.0000E+00  0.1120E+03  0.1120E+03
    -18.943  0.0000E+00  0.0000E+00  0.1120E+03  0.1120E+03
    -18.702  0.0000E+00  0.0000E+00  0.1120E+03  0.1120E+03
    -18.462  0.0000E+00  0.0000E+00  0.1120E+03  0.1120E+03
    -18.221  0.0000E+00  0.0000E+00  0.1120E+03  0.1120E+03
    -17.980  0.0000E+00  0.0000E+00  0.1120E+03  0.1120E+03
    -17.739  0.0000E+00  0.0000E+00  0.1120E+03  0.1120E+03
    -17.498  0.0000E+00  0.0000E+00  0.1120E+03  0.1120E+03
    -17.258  0.0000E+00  0.0000E+00  0.1120E+03  0.1120E+03
    -17.017  0.0000E+00  0.0000E+00  0.1120E+03  0.1120E+03
    -16.776  0.0000E+00  0.0000E+00  0.1120E+03  0.1120E+03
    -16.535  0.0000E+00  0.0000E+00  0.1120E+03  0.1120E+03
    -16.294  0.0000E+00  0.0000E+00  0.1120E+03  0.1120E+03
    -16.054  0.0000E+00  0.0000E+00  0.1120E+03  0.1120E+03
    -15.813  0.0000E+00  0.0000E+00  0.1120E+03  0.1120E+03
    -15.572  0.0000E+00  0.0000E+00  0.1120E+03  0.1120E+03
    -15.331  0.0000E+00  0.0000E+00  0.1120E+03  0.1120E+03
    -15.090  0.0000E+00  0.0000E+00  0.1120E+03  0.1120E+03
    -14.850  0.0000E+00  0.0000E+00  0.1120E+03  0.1120E+03
    -14.609  0.0000E+00  0.0000E+00  0.1120E+03  0.1120E+03
    -14.368  0.0000E+00  0.0000E+00  0.1120E+03  0.1120E+03
    -14.127  0.0000E+00  0.0000E+00  0.1120E+03  0.1120E+03
    -13.886  0.0000E+00  0.0000E+00  0.1120E+03  0.1120E+03
    -13.646  0.0000E+00  0.0000E+00  0.1120E+03  0.1120E+03
    -13.405  0.3812E-06  0.0000E+00  0.1120E+03  0.1120E+03
    -13.164  0.1820E+02  0.0000E+00  0.1164E+03  0.1120E+03
    -12.923  0.4655E+02  0.5666E-02  0.1276E+03  0.1120E+03
    -12.682  0.1692E+01  0.4131E+02  0.1280E+03  0.1219E+03
    -12.442  0.0000E+00  0.2513E+02  0.1280E+03  0.1280E+03
    -12.201  0.0000E+00  0.4274E-05  0.1280E+03  0.1280E+03
    -11.960  0.0000E+00  0.0000E+00  0.1280E+03  0.1280E+03
    -11.719  0.0000E+00  0.0000E+00  0.1280E+03  0.1280E+03
    -11.478  0.0000E+00  0.0000E+00  0.1280E+03  0.1280E+03
    -11.237  0.0000E+00  0.0000E+00  0.1280E+03  0.1280E+03
    -10.997  0.0000E+00  0.0000E+00  0.1280E+03  0.1280E+03
    -10.756  0.0000E+00  0.0000E+00  0.1280E+03  0.1280E+03
    -10.515  0.0000E+00  0.0000E+00  0.1280E+03  0.1280E+03
    -10.274  0.0000E+00  0.0000E+00  0.1280E+03  0.1280E+03
    -10.033  0.0000E+00  0.0000E+00  0.1280E+03  0.1280E+03
     -9.793  0.0000E+00  0.0000E+00  0.1280E+03  0.1280E+03
     -9.552  0.0000E+00  0.0000E+00  0.1280E+03  0.1280E+03
     -9.311  0.0000E+00  0.0000E+00  0.1280E+03  0.1280E+03
     -9.070  0.0000E+00  0.0000E+00  0.1280E+03  0.1280E+03
     -8.829  0.0000E+00  0.0000E+00  0.1280E+03  0.1280E+03
     -8.589  0.0000E+00  0.0000E+00  0.1280E+03  0.1280E+03
     -8.348  0.0000E+00  0.0000E+00  0.1280E+03  0.1280E+03
     -8.107  0.0000E+00  0.0000E+00  0.1280E+03  0.1280E+03
     -7.866  0.3299E-10  0.0000E+00  0.1280E+03  0.1280E+03
     -7.625  0.4987E+00  0.5657E-11  0.1281E+03  0.1280E+03
     -7.385  0.1223E+02  0.4343E+00  0.1311E+03  0.1281E+03
     -7.144  0.3024E+02  0.1344E+02  0.1383E+03  0.1313E+03
     -6.903  0.3337E+02  0.2952E+02  0.1464E+03  0.1384E+03
     -6.662  0.2332E+02  0.2563E+02  0.1520E+03  0.1446E+03
     -6.421  0.4451E-04  0.3058E+02  0.1520E+03  0.1520E+03
     -6.181  0.0000E+00  0.7460E-01  0.1520E+03  0.1520E+03
     -5.940  0.0000E+00  0.0000E+00  0.1520E+03  0.1520E+03
     -5.699  0.0000E+00  0.0000E+00  0.1520E+03  0.1520E+03
     -5.458  0.0000E+00  0.0000E+00  0.1520E+03  0.1520E+03
     -5.217  0.0000E+00  0.0000E+00  0.1520E+03  0.1520E+03
     -4.977  0.0000E+00  0.0000E+00  0.1520E+03  0.1520E+03
     -4.736  0.0000E+00  0.0000E+00  0.1520E+03  0.1520E+03
     -4.495  0.0000E+00  0.0000E+00  0.1520E+03  0.1520E+03
     -4.254  0.0000E+00  0.0000E+00  0.1520E+03  0.1520E+03
     -4.013  0.0000E+00  0.0000E+00  0.1520E+03  0.1520E+03
     -3.773  0.0000E+00  0.0000E+00  0.1520E+03  0.1520E+03
     -3.532  0.0000E+00  0.0000E+00  0.1520E+03  0.1520E+03
     -3.291  0.0000E+00  0.0000E+00  0.1520E+03  0.1520E+03
     -3.050  0.0000E+00  0.0000E+00  0.1520E+03  0.1520E+03
     -2.809  0.0000E+00  0.0000E+00  0.1520E+03  0.1520E+03
     -2.569  0.0000E+00  0.0000E+00  0.1520E+03  0.1520E+03
     -2.328  0.0000E+00  0.0000E+00  0.1520E+03  0.1520E+03
     -2.087  0.1299E-04  0.0000E+00  0.1520E+03  0.1520E+03
     -1.846  0.1538E+02  0.0000E+00  0.1557E+03  0.1520E+03
     -1.605  0.1976E+02  0.0000E+00  0.1605E+03  0.1520E+03
     -1.365  0.1498E+02  0.0000E+00  0.1641E+03  0.1520E+03
     -1.124  0.1699E+02  0.0000E+00  0.1682E+03  0.1520E+03
     -0.883  0.4514E+02  0.0000E+00  0.1790E+03  0.1520E+03
     -0.642  0.5887E+02  0.4402E-06  0.1932E+03  0.1520E+03
     -0.401  0.3874E+02  0.3794E+01  0.2025E+03  0.1529E+03
     -0.161  0.6736E+02  0.2034E+02  0.2188E+03  0.1578E+03
      0.080  0.7399E+02  0.1225E+02  0.2366E+03  0.1608E+03
      0.321  0.7750E+02  0.1829E+02  0.2552E+03  0.1652E+03
      0.562  0.6966E+02  0.2941E+02  0.2720E+03  0.1723E+03
      0.803  0.5655E+02  0.3905E+02  0.2856E+03  0.1817E+03
      1.044  0.3653E+02  0.3733E+02  0.2944E+03  0.1906E+03
      1.284  0.3043E+02  0.3157E+02  0.3018E+03  0.1982E+03
      1.525  0.4505E+02  0.2065E+02  0.3126E+03  0.2032E+03
      1.766  0.4163E+02  0.2911E+02  0.3226E+03  0.2102E+03
      2.007  0.6863E+02  0.3648E+02  0.3392E+03  0.2190E+03
      2.248  0.5908E+02  0.2814E+02  0.3534E+03  0.2258E+03
      2.488  0.2662E+02  0.2693E+02  0.3598E+03  0.2323E+03
      2.729  0.4248E+02  0.3017E+02  0.3700E+03  0.2395E+03
      2.970  0.3103E+02  0.4412E+02  0.3775E+03  0.2502E+03
      3.211  0.8616E+01  0.4560E+02  0.3796E+03  0.2611E+03
      3.452  0.2724E+02  0.3296E+02  0.3861E+03  0.2691E+03
      3.692  0.2763E+02  0.1273E+02  0.3928E+03  0.2721E+03
      3.933  0.3068E+02  0.1709E+02  0.4002E+03  0.2763E+03
      4.174  0.3593E+02  0.5287E+02  0.4088E+03  0.2890E+03
      4.415  0.3633E+02  0.4434E+02  0.4176E+03  0.2997E+03
      4.656  0.3048E+02  0.1798E+02  0.4249E+03  0.3040E+03
      4.896  0.2591E+02  0.8233E-02  0.4311E+03  0.3040E+03
      5.137  0.3554E+01  0.0000E+00  0.4320E+03  0.3040E+03
      5.378  0.0000E+00  0.0000E+00  0.4320E+03  0.3040E+03
      5.619  0.0000E+00  0.0000E+00  0.4320E+03  0.3040E+03
      5.860  0.0000E+00  0.0000E+00  0.4320E+03  0.3040E+03
      6.100  0.0000E+00  0.1275E-09  0.4320E+03  0.3040E+03
      6.341  0.0000E+00  0.3613E+00  0.4320E+03  0.3041E+03
      6.582  0.0000E+00  0.4179E+01  0.4320E+03  0.3051E+03
      6.823  0.0000E+00  0.7701E+01  0.4320E+03  0.3069E+03
      7.064  0.1878E-15  0.1871E+02  0.4320E+03  0.3115E+03
      7.304  0.2060E-01  0.4376E+02  0.4320E+03  0.3220E+03
      7.545  0.1332E+00  0.5293E+02  0.4320E+03  0.3347E+03
      7.786  0.2110E+00  0.6361E+02  0.4321E+03  0.3501E+03
      8.027  0.7531E+00  0.6546E+02  0.4323E+03  0.3658E+03
      8.268  0.2017E+01  0.6980E+02  0.4328E+03  0.3826E+03
      8.508  0.2635E+01  0.5988E+02  0.4334E+03  0.3970E+03
      8.749  0.8808E+01  0.5848E+02  0.4355E+03  0.4111E+03
      8.990  0.1231E+02  0.4856E+02  0.4385E+03  0.4228E+03
      9.231  0.1308E+02  0.3054E+02  0.4416E+03  0.4302E+03
      9.472  0.1800E+02  0.9184E+01  0.4460E+03  0.4324E+03
      9.712  0.1637E+02  0.2896E+01  0.4499E+03  0.4331E+03
      9.953  0.1565E+02  0.8260E+01  0.4537E+03  0.4351E+03
     10.194  0.2249E+02  0.1847E+02  0.4591E+03  0.4395E+03
     10.435  0.1482E+02  0.1799E+02  0.4627E+03  0.4439E+03
     10.676  0.1541E+02  0.1710E+02  0.4664E+03  0.4480E+03
     10.916  0.1308E+02  0.2757E+02  0.4695E+03  0.4546E+03
     11.157  0.2054E+02  0.1901E+02  0.4745E+03  0.4592E+03
     11.398  0.2449E+02  0.2384E+02  0.4804E+03  0.4649E+03
     11.639  0.2750E+02  0.1518E+02  0.4870E+03  0.4686E+03
     11.880  0.2429E+02  0.1371E+02  0.4928E+03  0.4719E+03
     12.121  0.3382E+02  0.1581E+02  0.5010E+03  0.4757E+03
     12.361  0.1997E+02  0.3625E+02  0.5058E+03  0.4844E+03
     12.602  0.2300E+02  0.3284E+02  0.5113E+03  0.4923E+03
     12.843  0.2137E+02  0.3030E+02  0.5165E+03  0.4996E+03
     13.084  0.2053E+02  0.2034E+02  0.5214E+03  0.5045E+03
     13.325  0.2346E+02  0.2187E+02  0.5271E+03  0.5098E+03
     13.565  0.2471E+02  0.2722E+02  0.5330E+03  0.5163E+03
     13.806  0.1356E+02  0.2373E+02  0.5363E+03  0.5221E+03
     14.047  0.7134E+01  0.2638E+02  0.5380E+03  0.5284E+03
     14.288  0.1198E-01  0.1943E+02  0.5380E+03  0.5331E+03
     14.529  0.0000E+00  0.1675E+02  0.5380E+03  0.5371E+03
     14.769  0.0000E+00  0.3654E+01  0.5380E+03  0.5380E+03
     15.010  0.0000E+00  0.3304E-05  0.5380E+03  0.5380E+03
     15.251  0.0000E+00  0.0000E+00  0.5380E+03  0.5380E+03
     15.492  0.0000E+00  0.0000E+00  0.5380E+03  0.5380E+03
     15.733  0.0000E+00  0.0000E+00  0.5380E+03  0.5380E+03
     15.973  0.0000E+00  0.0000E+00  0.5380E+03  0.5380E+03
     16.214  0.0000E+00  0.0000E+00  0.5380E+03  0.5380E+03
     16.455  0.0000E+00  0.0000E+00  0.5380E+03  0.5380E+03
     16.696  0.0000E+00  0.0000E+00  0.5380E+03  0.5380E+03
     16.937  0.0000E+00  0.0000E+00  0.5380E+03  0.5380E+03
     17.177  0.0000E+00  0.0000E+00  0.5380E+03  0.5380E+03
     17.418  0.0000E+00  0.0000E+00  0.5380E+03  0.5380E+03
     17.659  0.0000E+00  0.0000E+00  0.5380E+03  0.5380E+03
     17.900  0.0000E+00  0.0000E+00  0.5380E+03  0.5380E+03
