 160 160   0   0
  0.1215613E+02  0.1537564E-08  0.1124787E-08  0.1124760E-08  0.5000000E-15
  1.000000000000000E-004
  CAR 
 unknown system                          
     17.04936835    -54.79280970  301      4.89606656      1.00000000
    -54.793  0.0000E+00  0.0000E+00  0.0000E+00  0.0000E+00
    -54.553  0.0000E+00  0.0000E+00  0.0000E+00  0.0000E+00
    -54.314  0.0000E+00  0.0000E+00  0.0000E+00  0.0000E+00
    -54.074  0.0000E+00  0.0000E+00  0.0000E+00  0.0000E+00
    -53.835  0.0000E+00  0.0000E+00  0.0000E+00  0.0000E+00
    -53.595  0.0000E+00  0.0000E+00  0.0000E+00  0.0000E+00
    -53.356  0.0000E+00  0.0000E+00  0.0000E+00  0.0000E+00
    -53.116  0.0000E+00  0.0000E+00  0.0000E+00  0.0000E+00
    -52.877  0.0000E+00  0.0000E+00  0.0000E+00  0.0000E+00
    -52.638  0.0000E+00  0.0000E+00  0.0000E+00  0.0000E+00
    -52.398  0.0000E+00  0.0000E+00  0.0000E+00  0.0000E+00
    -52.159  0.0000E+00  0.0000E+00  0.0000E+00  0.0000E+00
    -51.919  0.0000E+00  0.0000E+00  0.0000E+00  0.0000E+00
    -51.680  0.2761E-03  0.0000E+00  0.6613E-04  0.0000E+00
    -51.440  0.8021E+02  0.0000E+00  0.1921E+02  0.0000E+00
    -51.201  0.5342E+02  0.0000E+00  0.3200E+02  0.0000E+00
    -50.961  0.0000E+00  0.0000E+00  0.3200E+02  0.0000E+00
    -50.722  0.0000E+00  0.0000E+00  0.3200E+02  0.0000E+00
    -50.482  0.3137E-13  0.0000E+00  0.3200E+02  0.0000E+00
    -50.243  0.6790E+01  0.0000E+00  0.3363E+02  0.0000E+00
    -50.003  0.1647E+03  0.0000E+00  0.7307E+02  0.0000E+00
    -49.764  0.9576E+02  0.0000E+00  0.9600E+02  0.0000E+00
    -49.524  0.0000E+00  0.0000E+00  0.9600E+02  0.0000E+00
    -49.285  0.0000E+00  0.0000E+00  0.9600E+02  0.0000E+00
    -49.045  0.0000E+00  0.0000E+00  0.9600E+02  0.0000E+00
    -48.806  0.0000E+00  0.0000E+00  0.9600E+02  0.0000E+00
    -48.566  0.0000E+00  0.0000E+00  0.9600E+02  0.0000E+00
    -48.327  0.0000E+00  0.0000E+00  0.9600E+02  0.0000E+00
    -48.088  0.0000E+00  0.0000E+00  0.9600E+02  0.0000E+00
    -47.848  0.0000E+00  0.0000E+00  0.9600E+02  0.0000E+00
    -47.609  0.0000E+00  0.0000E+00  0.9600E+02  0.0000E+00
    -47.369  0.0000E+00  0.0000E+00  0.9600E+02  0.0000E+00
    -47.130  0.0000E+00  0.0000E+00  0.9600E+02  0.0000E+00
    -46.890  0.0000E+00  0.1565E+00  0.9600E+02  0.3747E-01
    -46.651  0.0000E+00  0.1041E+03  0.9600E+02  0.2498E+02
    -46.411  0.0000E+00  0.1035E+03  0.9600E+02  0.4977E+02
    -46.172  0.0000E+00  0.1927E+03  0.9600E+02  0.9591E+02
    -45.932  0.0000E+00  0.3863E+00  0.9600E+02  0.9600E+02
    -45.693  0.0000E+00  0.0000E+00  0.9600E+02  0.9600E+02
    -45.453  0.0000E+00  0.0000E+00  0.9600E+02  0.9600E+02
    -45.214  0.0000E+00  0.0000E+00  0.9600E+02  0.9600E+02
    -44.974  0.0000E+00  0.0000E+00  0.9600E+02  0.9600E+02
    -44.735  0.0000E+00  0.0000E+00  0.9600E+02  0.9600E+02
    -44.495  0.0000E+00  0.0000E+00  0.9600E+02  0.9600E+02
    -44.256  0.0000E+00  0.0000E+00  0.9600E+02  0.9600E+02
    -44.016  0.0000E+00  0.0000E+00  0.9600E+02  0.9600E+02
    -43.777  0.0000E+00  0.0000E+00  0.9600E+02  0.9600E+02
    -43.538  0.0000E+00  0.0000E+00  0.9600E+02  0.9600E+02
    -43.298  0.0000E+00  0.0000E+00  0.9600E+02  0.9600E+02
    -43.059  0.0000E+00  0.0000E+00  0.9600E+02  0.9600E+02
    -42.819  0.0000E+00  0.0000E+00  0.9600E+02  0.9600E+02
    -42.580  0.0000E+00  0.0000E+00  0.9600E+02  0.9600E+02
    -42.340  0.0000E+00  0.0000E+00  0.9600E+02  0.9600E+02
    -42.101  0.0000E+00  0.0000E+00  0.9600E+02  0.9600E+02
    -41.861  0.0000E+00  0.0000E+00  0.9600E+02  0.9600E+02
    -41.622  0.0000E+00  0.0000E+00  0.9600E+02  0.9600E+02
    -41.382  0.0000E+00  0.0000E+00  0.9600E+02  0.9600E+02
    -41.143  0.0000E+00  0.0000E+00  0.9600E+02  0.9600E+02
    -40.903  0.0000E+00  0.0000E+00  0.9600E+02  0.9600E+02
    -40.664  0.6954E-15  0.2318E-15  0.9600E+02  0.9600E+02
    -40.424  0.3274E+01  0.2872E+01  0.9678E+02  0.9669E+02
    -40.185  0.1769E+03  0.1794E+03  0.1392E+03  0.1396E+03
    -39.945  0.8704E+02  0.8503E+02  0.1600E+03  0.1600E+03
    -39.706  0.0000E+00  0.0000E+00  0.1600E+03  0.1600E+03
    -39.466  0.0000E+00  0.0000E+00  0.1600E+03  0.1600E+03
    -39.227  0.0000E+00  0.0000E+00  0.1600E+03  0.1600E+03
    -38.988  0.0000E+00  0.0000E+00  0.1600E+03  0.1600E+03
    -38.748  0.0000E+00  0.0000E+00  0.1600E+03  0.1600E+03
    -38.509  0.0000E+00  0.0000E+00  0.1600E+03  0.1600E+03
    -38.269  0.0000E+00  0.0000E+00  0.1600E+03  0.1600E+03
    -38.030  0.0000E+00  0.0000E+00  0.1600E+03  0.1600E+03
    -37.790  0.0000E+00  0.0000E+00  0.1600E+03  0.1600E+03
    -37.551  0.0000E+00  0.0000E+00  0.1600E+03  0.1600E+03
    -37.311  0.0000E+00  0.0000E+00  0.1600E+03  0.1600E+03
    -37.072  0.0000E+00  0.0000E+00  0.1600E+03  0.1600E+03
    -36.832  0.0000E+00  0.0000E+00  0.1600E+03  0.1600E+03
    -36.593  0.0000E+00  0.0000E+00  0.1600E+03  0.1600E+03
    -36.353  0.0000E+00  0.0000E+00  0.1600E+03  0.1600E+03
    -36.114  0.0000E+00  0.0000E+00  0.1600E+03  0.1600E+03
    -35.874  0.0000E+00  0.0000E+00  0.1600E+03  0.1600E+03
    -35.635  0.0000E+00  0.0000E+00  0.1600E+03  0.1600E+03
    -35.395  0.0000E+00  0.0000E+00  0.1600E+03  0.1600E+03
    -35.156  0.0000E+00  0.0000E+00  0.1600E+03  0.1600E+03
    -34.916  0.0000E+00  0.0000E+00  0.1600E+03  0.1600E+03
    -34.677  0.0000E+00  0.0000E+00  0.1600E+03  0.1600E+03
    -34.438  0.0000E+00  0.0000E+00  0.1600E+03  0.1600E+03
    -34.198  0.0000E+00  0.0000E+00  0.1600E+03  0.1600E+03
    -33.959  0.0000E+00  0.0000E+00  0.1600E+03  0.1600E+03
    -33.719  0.0000E+00  0.0000E+00  0.1600E+03  0.1600E+03
    -33.480  0.0000E+00  0.0000E+00  0.1600E+03  0.1600E+03
    -33.240  0.0000E+00  0.0000E+00  0.1600E+03  0.1600E+03
    -33.001  0.0000E+00  0.0000E+00  0.1600E+03  0.1600E+03
    -32.761  0.0000E+00  0.0000E+00  0.1600E+03  0.1600E+03
    -32.522  0.0000E+00  0.0000E+00  0.1600E+03  0.1600E+03
    -32.282  0.0000E+00  0.0000E+00  0.1600E+03  0.1600E+03
    -32.043  0.0000E+00  0.0000E+00  0.1600E+03  0.1600E+03
    -31.803  0.0000E+00  0.0000E+00  0.1600E+03  0.1600E+03
    -31.564  0.0000E+00  0.0000E+00  0.1600E+03  0.1600E+03
    -31.324  0.0000E+00  0.0000E+00  0.1600E+03  0.1600E+03
    -31.085  0.0000E+00  0.0000E+00  0.1600E+03  0.1600E+03
    -30.845  0.0000E+00  0.0000E+00  0.1600E+03  0.1600E+03
    -30.606  0.0000E+00  0.0000E+00  0.1600E+03  0.1600E+03
    -30.366  0.0000E+00  0.0000E+00  0.1600E+03  0.1600E+03
    -30.127  0.0000E+00  0.0000E+00  0.1600E+03  0.1600E+03
    -29.888  0.0000E+00  0.0000E+00  0.1600E+03  0.1600E+03
    -29.648  0.0000E+00  0.0000E+00  0.1600E+03  0.1600E+03
    -29.409  0.0000E+00  0.0000E+00  0.1600E+03  0.1600E+03
    -29.169  0.0000E+00  0.0000E+00  0.1600E+03  0.1600E+03
    -28.930  0.0000E+00  0.0000E+00  0.1600E+03  0.1600E+03
    -28.690  0.0000E+00  0.0000E+00  0.1600E+03  0.1600E+03
    -28.451  0.0000E+00  0.0000E+00  0.1600E+03  0.1600E+03
    -28.211  0.0000E+00  0.0000E+00  0.1600E+03  0.1600E+03
    -27.972  0.0000E+00  0.0000E+00  0.1600E+03  0.1600E+03
    -27.732  0.0000E+00  0.0000E+00  0.1600E+03  0.1600E+03
    -27.493  0.0000E+00  0.0000E+00  0.1600E+03  0.1600E+03
    -27.253  0.0000E+00  0.0000E+00  0.1600E+03  0.1600E+03
    -27.014  0.0000E+00  0.0000E+00  0.1600E+03  0.1600E+03
    -26.774  0.0000E+00  0.0000E+00  0.1600E+03  0.1600E+03
    -26.535  0.0000E+00  0.0000E+00  0.1600E+03  0.1600E+03
    -26.295  0.0000E+00  0.0000E+00  0.1600E+03  0.1600E+03
    -26.056  0.0000E+00  0.0000E+00  0.1600E+03  0.1600E+03
    -25.816  0.0000E+00  0.0000E+00  0.1600E+03  0.1600E+03
    -25.577  0.0000E+00  0.0000E+00  0.1600E+03  0.1600E+03
    -25.338  0.0000E+00  0.0000E+00  0.1600E+03  0.1600E+03
    -25.098  0.0000E+00  0.0000E+00  0.1600E+03  0.1600E+03
    -24.859  0.0000E+00  0.0000E+00  0.1600E+03  0.1600E+03
    -24.619  0.0000E+00  0.0000E+00  0.1600E+03  0.1600E+03
    -24.380  0.0000E+00  0.0000E+00  0.1600E+03  0.1600E+03
    -24.140  0.0000E+00  0.0000E+00  0.1600E+03  0.1600E+03
    -23.901  0.0000E+00  0.0000E+00  0.1600E+03  0.1600E+03
    -23.661  0.0000E+00  0.0000E+00  0.1600E+03  0.1600E+03
    -23.422  0.0000E+00  0.0000E+00  0.1600E+03  0.1600E+03
    -23.182  0.0000E+00  0.0000E+00  0.1600E+03  0.1600E+03
    -22.943  0.0000E+00  0.0000E+00  0.1600E+03  0.1600E+03
    -22.703  0.0000E+00  0.0000E+00  0.1600E+03  0.1600E+03
    -22.464  0.0000E+00  0.0000E+00  0.1600E+03  0.1600E+03
    -22.224  0.0000E+00  0.0000E+00  0.1600E+03  0.1600E+03
    -21.985  0.0000E+00  0.0000E+00  0.1600E+03  0.1600E+03
    -21.745  0.0000E+00  0.0000E+00  0.1600E+03  0.1600E+03
    -21.506  0.0000E+00  0.0000E+00  0.1600E+03  0.1600E+03
    -21.266  0.0000E+00  0.0000E+00  0.1600E+03  0.1600E+03
    -21.027  0.0000E+00  0.0000E+00  0.1600E+03  0.1600E+03
    -20.788  0.0000E+00  0.0000E+00  0.1600E+03  0.1600E+03
    -20.548  0.0000E+00  0.0000E+00  0.1600E+03  0.1600E+03
    -20.309  0.0000E+00  0.0000E+00  0.1600E+03  0.1600E+03
    -20.069  0.0000E+00  0.0000E+00  0.1600E+03  0.1600E+03
    -19.830  0.0000E+00  0.0000E+00  0.1600E+03  0.1600E+03
    -19.590  0.0000E+00  0.0000E+00  0.1600E+03  0.1600E+03
    -19.351  0.0000E+00  0.0000E+00  0.1600E+03  0.1600E+03
    -19.111  0.0000E+00  0.0000E+00  0.1600E+03  0.1600E+03
    -18.872  0.0000E+00  0.0000E+00  0.1600E+03  0.1600E+03
    -18.632  0.0000E+00  0.0000E+00  0.1600E+03  0.1600E+03
    -18.393  0.0000E+00  0.0000E+00  0.1600E+03  0.1600E+03
    -18.153  0.0000E+00  0.0000E+00  0.1600E+03  0.1600E+03
    -17.914  0.0000E+00  0.0000E+00  0.1600E+03  0.1600E+03
    -17.674  0.0000E+00  0.0000E+00  0.1600E+03  0.1600E+03
    -17.435  0.0000E+00  0.0000E+00  0.1600E+03  0.1600E+03
    -17.195  0.0000E+00  0.0000E+00  0.1600E+03  0.1600E+03
    -16.956  0.0000E+00  0.0000E+00  0.1600E+03  0.1600E+03
    -16.716  0.0000E+00  0.0000E+00  0.1600E+03  0.1600E+03
    -16.477  0.0000E+00  0.0000E+00  0.1600E+03  0.1600E+03
    -16.238  0.0000E+00  0.0000E+00  0.1600E+03  0.1600E+03
    -15.998  0.0000E+00  0.0000E+00  0.1600E+03  0.1600E+03
    -15.759  0.0000E+00  0.0000E+00  0.1600E+03  0.1600E+03
    -15.519  0.0000E+00  0.0000E+00  0.1600E+03  0.1600E+03
    -15.280  0.0000E+00  0.0000E+00  0.1600E+03  0.1600E+03
    -15.040  0.0000E+00  0.0000E+00  0.1600E+03  0.1600E+03
    -14.801  0.0000E+00  0.0000E+00  0.1600E+03  0.1600E+03
    -14.561  0.0000E+00  0.0000E+00  0.1600E+03  0.1600E+03
    -14.322  0.0000E+00  0.0000E+00  0.1600E+03  0.1600E+03
    -14.082  0.0000E+00  0.0000E+00  0.1600E+03  0.1600E+03
    -13.843  0.0000E+00  0.0000E+00  0.1600E+03  0.1600E+03
    -13.603  0.1756E-01  0.0000E+00  0.1600E+03  0.1600E+03
    -13.364  0.5267E+02  0.1882E-05  0.1726E+03  0.1600E+03
    -13.124  0.7225E+02  0.2850E+02  0.1899E+03  0.1668E+03
    -12.885  0.8691E+01  0.1002E+03  0.1920E+03  0.1908E+03
    -12.645  0.0000E+00  0.4954E+01  0.1920E+03  0.1920E+03
    -12.406  0.0000E+00  0.0000E+00  0.1920E+03  0.1920E+03
    -12.166  0.0000E+00  0.0000E+00  0.1920E+03  0.1920E+03
    -11.927  0.0000E+00  0.0000E+00  0.1920E+03  0.1920E+03
    -11.688  0.0000E+00  0.0000E+00  0.1920E+03  0.1920E+03
    -11.448  0.0000E+00  0.0000E+00  0.1920E+03  0.1920E+03
    -11.209  0.0000E+00  0.0000E+00  0.1920E+03  0.1920E+03
    -10.969  0.0000E+00  0.0000E+00  0.1920E+03  0.1920E+03
    -10.730  0.0000E+00  0.0000E+00  0.1920E+03  0.1920E+03
    -10.490  0.0000E+00  0.0000E+00  0.1920E+03  0.1920E+03
    -10.251  0.0000E+00  0.0000E+00  0.1920E+03  0.1920E+03
    -10.011  0.0000E+00  0.0000E+00  0.1920E+03  0.1920E+03
     -9.772  0.0000E+00  0.0000E+00  0.1920E+03  0.1920E+03
     -9.532  0.0000E+00  0.0000E+00  0.1920E+03  0.1920E+03
     -9.293  0.0000E+00  0.0000E+00  0.1920E+03  0.1920E+03
     -9.053  0.0000E+00  0.0000E+00  0.1920E+03  0.1920E+03
     -8.814  0.0000E+00  0.0000E+00  0.1920E+03  0.1920E+03
     -8.574  0.0000E+00  0.0000E+00  0.1920E+03  0.1920E+03
     -8.335  0.0000E+00  0.0000E+00  0.1920E+03  0.1920E+03
     -8.095  0.0000E+00  0.0000E+00  0.1920E+03  0.1920E+03
     -7.856  0.3669E-10  0.0000E+00  0.1920E+03  0.1920E+03
     -7.616  0.1501E+01  0.3617E-07  0.1924E+03  0.1920E+03
     -7.377  0.4660E+02  0.7507E+01  0.2035E+03  0.1938E+03
     -7.137  0.6533E+02  0.6066E+02  0.2192E+03  0.2083E+03
     -6.898  0.2018E+02  0.5449E+02  0.2240E+03  0.2214E+03
     -6.659  0.1067E-01  0.1097E+02  0.2240E+03  0.2240E+03
     -6.419  0.0000E+00  0.3976E-02  0.2240E+03  0.2240E+03
     -6.180  0.0000E+00  0.0000E+00  0.2240E+03  0.2240E+03
     -5.940  0.0000E+00  0.0000E+00  0.2240E+03  0.2240E+03
     -5.701  0.0000E+00  0.0000E+00  0.2240E+03  0.2240E+03
     -5.461  0.0000E+00  0.0000E+00  0.2240E+03  0.2240E+03
     -5.222  0.0000E+00  0.0000E+00  0.2240E+03  0.2240E+03
     -4.982  0.0000E+00  0.0000E+00  0.2240E+03  0.2240E+03
     -4.743  0.0000E+00  0.0000E+00  0.2240E+03  0.2240E+03
     -4.503  0.0000E+00  0.0000E+00  0.2240E+03  0.2240E+03
     -4.264  0.0000E+00  0.0000E+00  0.2240E+03  0.2240E+03
     -4.024  0.0000E+00  0.0000E+00  0.2240E+03  0.2240E+03
     -3.785  0.0000E+00  0.0000E+00  0.2240E+03  0.2240E+03
     -3.545  0.0000E+00  0.0000E+00  0.2240E+03  0.2240E+03
     -3.306  0.0000E+00  0.0000E+00  0.2240E+03  0.2240E+03
     -3.066  0.0000E+00  0.0000E+00  0.2240E+03  0.2240E+03
     -2.827  0.3735E-15  0.0000E+00  0.2240E+03  0.2240E+03
     -2.587  0.3859E+00  0.0000E+00  0.2241E+03  0.2240E+03
     -2.348  0.3087E+02  0.0000E+00  0.2315E+03  0.2240E+03
     -2.109  0.1154E+02  0.0000E+00  0.2342E+03  0.2240E+03
     -1.869  0.1288E+02  0.0000E+00  0.2373E+03  0.2240E+03
     -1.630  0.1132E+02  0.0000E+00  0.2400E+03  0.2240E+03
     -1.390  0.1563E+02  0.0000E+00  0.2438E+03  0.2240E+03
     -1.151  0.6276E+02  0.2078E-05  0.2588E+03  0.2240E+03
     -0.911  0.7650E+02  0.3359E+01  0.2771E+03  0.2248E+03
     -0.672  0.6752E+02  0.3286E+02  0.2933E+03  0.2327E+03
     -0.432  0.7779E+02  0.1890E+02  0.3119E+03  0.2372E+03
     -0.193  0.1060E+03  0.1910E+02  0.3373E+03  0.2418E+03
      0.047  0.7868E+02  0.1222E+02  0.3562E+03  0.2447E+03
      0.286  0.5346E+02  0.3169E+02  0.3690E+03  0.2523E+03
      0.526  0.4756E+02  0.8131E+02  0.3804E+03  0.2718E+03
      0.765  0.4624E+02  0.6836E+02  0.3914E+03  0.2881E+03
      1.005  0.4664E+02  0.6982E+02  0.4026E+03  0.3048E+03
      1.244  0.7667E+02  0.6349E+02  0.4210E+03  0.3201E+03
      1.484  0.8764E+02  0.2170E+02  0.4420E+03  0.3252E+03
      1.723  0.5831E+02  0.5069E+02  0.4559E+03  0.3374E+03
      1.963  0.4004E+02  0.5158E+02  0.4655E+03  0.3497E+03
      2.202  0.4715E+02  0.3060E+02  0.4768E+03  0.3571E+03
      2.441  0.4168E+02  0.3902E+02  0.4868E+03  0.3664E+03
      2.681  0.5332E+02  0.6460E+02  0.4996E+03  0.3819E+03
      2.920  0.5384E+02  0.7221E+02  0.5124E+03  0.3992E+03
      3.160  0.5658E+02  0.6003E+02  0.5260E+03  0.4135E+03
      3.399  0.5306E+02  0.1612E+02  0.5387E+03  0.4174E+03
      3.639  0.5333E+02  0.3611E+02  0.5515E+03  0.4261E+03
      3.878  0.3993E+02  0.5941E+02  0.5610E+03  0.4403E+03
      4.118  0.3549E+02  0.3217E+02  0.5695E+03  0.4480E+03
      4.357  0.1927E+02  0.4466E-01  0.5741E+03  0.4480E+03
      4.597  0.7427E+01  0.0000E+00  0.5759E+03  0.4480E+03
      4.836  0.3230E+00  0.0000E+00  0.5760E+03  0.4480E+03
      5.076  0.0000E+00  0.0000E+00  0.5760E+03  0.4480E+03
      5.315  0.0000E+00  0.0000E+00  0.5760E+03  0.4480E+03
      5.555  0.0000E+00  0.0000E+00  0.5760E+03  0.4480E+03
      5.794  0.0000E+00  0.0000E+00  0.5760E+03  0.4480E+03
      6.034  0.0000E+00  0.0000E+00  0.5760E+03  0.4480E+03
      6.273  0.0000E+00  0.1545E-15  0.5760E+03  0.4480E+03
      6.513  0.0000E+00  0.6670E-01  0.5760E+03  0.4480E+03
      6.752  0.0000E+00  0.2428E+02  0.5760E+03  0.4538E+03
      6.991  0.6802E-06  0.7767E+02  0.5760E+03  0.4724E+03
      7.231  0.2291E+00  0.6323E+02  0.5761E+03  0.4876E+03
      7.470  0.1874E+00  0.6382E+02  0.5761E+03  0.5029E+03
      7.710  0.1386E+01  0.6308E+02  0.5764E+03  0.5180E+03
      7.949  0.3021E+01  0.9500E+02  0.5772E+03  0.5407E+03
      8.189  0.6549E+01  0.7275E+02  0.5787E+03  0.5581E+03
      8.428  0.9474E+01  0.4920E+02  0.5810E+03  0.5699E+03
      8.668  0.1874E+02  0.2502E+02  0.5855E+03  0.5759E+03
      8.907  0.2338E+02  0.7259E+01  0.5911E+03  0.5776E+03
      9.147  0.3138E+02  0.8601E+01  0.5986E+03  0.5797E+03
      9.386  0.2853E+02  0.1781E+02  0.6054E+03  0.5840E+03
      9.626  0.2978E+02  0.2684E+02  0.6126E+03  0.5904E+03
      9.865  0.2620E+02  0.3192E+02  0.6188E+03  0.5980E+03
     10.105  0.1755E+02  0.3781E+02  0.6230E+03  0.6071E+03
     10.344  0.2596E+02  0.3349E+02  0.6292E+03  0.6151E+03
     10.584  0.3632E+02  0.2857E+02  0.6379E+03  0.6220E+03
     10.823  0.4023E+02  0.3310E+02  0.6476E+03  0.6299E+03
     11.063  0.3301E+02  0.2821E+02  0.6555E+03  0.6366E+03
     11.302  0.4922E+02  0.2601E+02  0.6673E+03  0.6429E+03
     11.541  0.4115E+02  0.2920E+02  0.6771E+03  0.6499E+03
     11.781  0.4151E+02  0.5097E+02  0.6871E+03  0.6621E+03
     12.020  0.3405E+02  0.5026E+02  0.6952E+03  0.6741E+03
     12.260  0.3278E+02  0.5602E+02  0.7031E+03  0.6875E+03
     12.499  0.3251E+02  0.3157E+02  0.7109E+03  0.6951E+03
     12.739  0.3679E+02  0.3267E+02  0.7197E+03  0.7029E+03
     12.978  0.3449E+02  0.3217E+02  0.7279E+03  0.7106E+03
     13.218  0.1559E+02  0.3809E+02  0.7317E+03  0.7197E+03
     13.457  0.1065E+01  0.3356E+02  0.7319E+03  0.7278E+03
     13.697  0.3632E+00  0.1691E+02  0.7320E+03  0.7318E+03
     13.936  0.0000E+00  0.7870E+00  0.7320E+03  0.7320E+03
     14.176  0.0000E+00  0.3198E-05  0.7320E+03  0.7320E+03
     14.415  0.0000E+00  0.0000E+00  0.7320E+03  0.7320E+03
     14.655  0.0000E+00  0.0000E+00  0.7320E+03  0.7320E+03
     14.894  0.0000E+00  0.0000E+00  0.7320E+03  0.7320E+03
     15.134  0.0000E+00  0.0000E+00  0.7320E+03  0.7320E+03
     15.373  0.0000E+00  0.0000E+00  0.7320E+03  0.7320E+03
     15.613  0.0000E+00  0.0000E+00  0.7320E+03  0.7320E+03
     15.852  0.0000E+00  0.0000E+00  0.7320E+03  0.7320E+03
     16.091  0.0000E+00  0.0000E+00  0.7320E+03  0.7320E+03
     16.331  0.0000E+00  0.0000E+00  0.7320E+03  0.7320E+03
     16.570  0.0000E+00  0.0000E+00  0.7320E+03  0.7320E+03
     16.810  0.0000E+00  0.0000E+00  0.7320E+03  0.7320E+03
     17.049  0.0000E+00  0.0000E+00  0.7320E+03  0.7320E+03
