  88  88   0   0
  0.1431748E+02  0.1111223E-08  0.1111745E-08  0.1056954E-08  0.5000000E-15
  1.000000000000000E-004
  CAR 
 unknown system                          
     17.90513451    -54.33986924  301      5.20205469      1.00000000
    -54.340  0.0000E+00  0.0000E+00  0.0000E+00  0.0000E+00
    -54.099  0.0000E+00  0.0000E+00  0.0000E+00  0.0000E+00
    -53.858  0.0000E+00  0.0000E+00  0.0000E+00  0.0000E+00
    -53.617  0.0000E+00  0.0000E+00  0.0000E+00  0.0000E+00
    -53.377  0.0000E+00  0.0000E+00  0.0000E+00  0.0000E+00
    -53.136  0.0000E+00  0.0000E+00  0.0000E+00  0.0000E+00
    -52.895  0.0000E+00  0.0000E+00  0.0000E+00  0.0000E+00
    -52.654  0.0000E+00  0.0000E+00  0.0000E+00  0.0000E+00
    -52.413  0.0000E+00  0.0000E+00  0.0000E+00  0.0000E+00
    -52.173  0.0000E+00  0.0000E+00  0.0000E+00  0.0000E+00
    -51.932  0.0000E+00  0.0000E+00  0.0000E+00  0.0000E+00
    -51.691  0.0000E+00  0.0000E+00  0.0000E+00  0.0000E+00
    -51.450  0.0000E+00  0.0000E+00  0.0000E+00  0.0000E+00
    -51.209  0.4155E-03  0.0000E+00  0.1001E-03  0.0000E+00
    -50.968  0.1310E+03  0.0000E+00  0.3156E+02  0.0000E+00
    -50.728  0.1843E+01  0.0000E+00  0.3200E+02  0.0000E+00
    -50.487  0.0000E+00  0.0000E+00  0.3200E+02  0.0000E+00
    -50.246  0.0000E+00  0.0000E+00  0.3200E+02  0.0000E+00
    -50.005  0.0000E+00  0.0000E+00  0.3200E+02  0.0000E+00
    -49.764  0.2039E+01  0.0000E+00  0.3249E+02  0.0000E+00
    -49.524  0.2372E+03  0.0000E+00  0.8962E+02  0.0000E+00
    -49.283  0.2651E+02  0.0000E+00  0.9600E+02  0.0000E+00
    -49.042  0.0000E+00  0.0000E+00  0.9600E+02  0.0000E+00
    -48.801  0.0000E+00  0.0000E+00  0.9600E+02  0.0000E+00
    -48.560  0.0000E+00  0.0000E+00  0.9600E+02  0.0000E+00
    -48.319  0.0000E+00  0.0000E+00  0.9600E+02  0.0000E+00
    -48.079  0.0000E+00  0.0000E+00  0.9600E+02  0.0000E+00
    -47.838  0.0000E+00  0.0000E+00  0.9600E+02  0.0000E+00
    -47.597  0.0000E+00  0.0000E+00  0.9600E+02  0.0000E+00
    -47.356  0.0000E+00  0.0000E+00  0.9600E+02  0.0000E+00
    -47.115  0.0000E+00  0.0000E+00  0.9600E+02  0.0000E+00
    -46.875  0.0000E+00  0.0000E+00  0.9600E+02  0.0000E+00
    -46.634  0.0000E+00  0.0000E+00  0.9600E+02  0.0000E+00
    -46.393  0.0000E+00  0.3885E+00  0.9600E+02  0.9356E-01
    -46.152  0.0000E+00  0.1325E+03  0.9600E+02  0.3199E+02
    -45.911  0.0000E+00  0.6094E+02  0.9600E+02  0.4667E+02
    -45.670  0.0000E+00  0.2049E+03  0.9600E+02  0.9600E+02
    -45.430  0.0000E+00  0.0000E+00  0.9600E+02  0.9600E+02
    -45.189  0.0000E+00  0.0000E+00  0.9600E+02  0.9600E+02
    -44.948  0.0000E+00  0.0000E+00  0.9600E+02  0.9600E+02
    -44.707  0.0000E+00  0.0000E+00  0.9600E+02  0.9600E+02
    -44.466  0.0000E+00  0.0000E+00  0.9600E+02  0.9600E+02
    -44.226  0.0000E+00  0.0000E+00  0.9600E+02  0.9600E+02
    -43.985  0.0000E+00  0.0000E+00  0.9600E+02  0.9600E+02
    -43.744  0.0000E+00  0.0000E+00  0.9600E+02  0.9600E+02
    -43.503  0.0000E+00  0.0000E+00  0.9600E+02  0.9600E+02
    -43.262  0.0000E+00  0.0000E+00  0.9600E+02  0.9600E+02
    -43.021  0.0000E+00  0.0000E+00  0.9600E+02  0.9600E+02
    -42.781  0.0000E+00  0.0000E+00  0.9600E+02  0.9600E+02
    -42.540  0.0000E+00  0.0000E+00  0.9600E+02  0.9600E+02
    -42.299  0.0000E+00  0.0000E+00  0.9600E+02  0.9600E+02
    -42.058  0.0000E+00  0.0000E+00  0.9600E+02  0.9600E+02
    -41.817  0.0000E+00  0.0000E+00  0.9600E+02  0.9600E+02
    -41.577  0.0000E+00  0.0000E+00  0.9600E+02  0.9600E+02
    -41.336  0.0000E+00  0.0000E+00  0.9600E+02  0.9600E+02
    -41.095  0.0000E+00  0.0000E+00  0.9600E+02  0.9600E+02
    -40.854  0.0000E+00  0.0000E+00  0.9600E+02  0.9600E+02
    -40.613  0.0000E+00  0.0000E+00  0.9600E+02  0.9600E+02
    -40.373  0.0000E+00  0.0000E+00  0.9600E+02  0.9600E+02
    -40.132  0.1693E-11  0.1074E-11  0.9600E+02  0.9600E+02
    -39.891  0.1566E+02  0.1447E+02  0.9977E+02  0.9949E+02
    -39.650  0.5078E+02  0.5197E+02  0.1120E+03  0.1120E+03
    -39.409  0.0000E+00  0.0000E+00  0.1120E+03  0.1120E+03
    -39.168  0.0000E+00  0.0000E+00  0.1120E+03  0.1120E+03
    -38.928  0.0000E+00  0.0000E+00  0.1120E+03  0.1120E+03
    -38.687  0.0000E+00  0.0000E+00  0.1120E+03  0.1120E+03
    -38.446  0.0000E+00  0.0000E+00  0.1120E+03  0.1120E+03
    -38.205  0.0000E+00  0.0000E+00  0.1120E+03  0.1120E+03
    -37.964  0.0000E+00  0.0000E+00  0.1120E+03  0.1120E+03
    -37.724  0.0000E+00  0.0000E+00  0.1120E+03  0.1120E+03
    -37.483  0.0000E+00  0.0000E+00  0.1120E+03  0.1120E+03
    -37.242  0.0000E+00  0.0000E+00  0.1120E+03  0.1120E+03
    -37.001  0.0000E+00  0.0000E+00  0.1120E+03  0.1120E+03
    -36.760  0.0000E+00  0.0000E+00  0.1120E+03  0.1120E+03
    -36.519  0.0000E+00  0.0000E+00  0.1120E+03  0.1120E+03
    -36.279  0.0000E+00  0.0000E+00  0.1120E+03  0.1120E+03
    -36.038  0.0000E+00  0.0000E+00  0.1120E+03  0.1120E+03
    -35.797  0.0000E+00  0.0000E+00  0.1120E+03  0.1120E+03
    -35.556  0.0000E+00  0.0000E+00  0.1120E+03  0.1120E+03
    -35.315  0.0000E+00  0.0000E+00  0.1120E+03  0.1120E+03
    -35.075  0.0000E+00  0.0000E+00  0.1120E+03  0.1120E+03
    -34.834  0.0000E+00  0.0000E+00  0.1120E+03  0.1120E+03
    -34.593  0.0000E+00  0.0000E+00  0.1120E+03  0.1120E+03
    -34.352  0.0000E+00  0.0000E+00  0.1120E+03  0.1120E+03
    -34.111  0.0000E+00  0.0000E+00  0.1120E+03  0.1120E+03
    -33.870  0.0000E+00  0.0000E+00  0.1120E+03  0.1120E+03
    -33.630  0.0000E+00  0.0000E+00  0.1120E+03  0.1120E+03
    -33.389  0.0000E+00  0.0000E+00  0.1120E+03  0.1120E+03
    -33.148  0.0000E+00  0.0000E+00  0.1120E+03  0.1120E+03
    -32.907  0.0000E+00  0.0000E+00  0.1120E+03  0.1120E+03
    -32.666  0.0000E+00  0.0000E+00  0.1120E+03  0.1120E+03
    -32.426  0.0000E+00  0.0000E+00  0.1120E+03  0.1120E+03
    -32.185  0.0000E+00  0.0000E+00  0.1120E+03  0.1120E+03
    -31.944  0.0000E+00  0.0000E+00  0.1120E+03  0.1120E+03
    -31.703  0.0000E+00  0.0000E+00  0.1120E+03  0.1120E+03
    -31.462  0.0000E+00  0.0000E+00  0.1120E+03  0.1120E+03
    -31.221  0.0000E+00  0.0000E+00  0.1120E+03  0.1120E+03
    -30.981  0.0000E+00  0.0000E+00  0.1120E+03  0.1120E+03
    -30.740  0.0000E+00  0.0000E+00  0.1120E+03  0.1120E+03
    -30.499  0.0000E+00  0.0000E+00  0.1120E+03  0.1120E+03
    -30.258  0.0000E+00  0.0000E+00  0.1120E+03  0.1120E+03
    -30.017  0.0000E+00  0.0000E+00  0.1120E+03  0.1120E+03
    -29.777  0.0000E+00  0.0000E+00  0.1120E+03  0.1120E+03
    -29.536  0.0000E+00  0.0000E+00  0.1120E+03  0.1120E+03
    -29.295  0.0000E+00  0.0000E+00  0.1120E+03  0.1120E+03
    -29.054  0.0000E+00  0.0000E+00  0.1120E+03  0.1120E+03
    -28.813  0.0000E+00  0.0000E+00  0.1120E+03  0.1120E+03
    -28.572  0.0000E+00  0.0000E+00  0.1120E+03  0.1120E+03
    -28.332  0.0000E+00  0.0000E+00  0.1120E+03  0.1120E+03
    -28.091  0.0000E+00  0.0000E+00  0.1120E+03  0.1120E+03
    -27.850  0.0000E+00  0.0000E+00  0.1120E+03  0.1120E+03
    -27.609  0.0000E+00  0.0000E+00  0.1120E+03  0.1120E+03
    -27.368  0.0000E+00  0.0000E+00  0.1120E+03  0.1120E+03
    -27.128  0.0000E+00  0.0000E+00  0.1120E+03  0.1120E+03
    -26.887  0.0000E+00  0.0000E+00  0.1120E+03  0.1120E+03
    -26.646  0.0000E+00  0.0000E+00  0.1120E+03  0.1120E+03
    -26.405  0.0000E+00  0.0000E+00  0.1120E+03  0.1120E+03
    -26.164  0.0000E+00  0.0000E+00  0.1120E+03  0.1120E+03
    -25.924  0.0000E+00  0.0000E+00  0.1120E+03  0.1120E+03
    -25.683  0.0000E+00  0.0000E+00  0.1120E+03  0.1120E+03
    -25.442  0.0000E+00  0.0000E+00  0.1120E+03  0.1120E+03
    -25.201  0.0000E+00  0.0000E+00  0.1120E+03  0.1120E+03
    -24.960  0.0000E+00  0.0000E+00  0.1120E+03  0.1120E+03
    -24.719  0.0000E+00  0.0000E+00  0.1120E+03  0.1120E+03
    -24.479  0.0000E+00  0.0000E+00  0.1120E+03  0.1120E+03
    -24.238  0.0000E+00  0.0000E+00  0.1120E+03  0.1120E+03
    -23.997  0.0000E+00  0.0000E+00  0.1120E+03  0.1120E+03
    -23.756  0.0000E+00  0.0000E+00  0.1120E+03  0.1120E+03
    -23.515  0.0000E+00  0.0000E+00  0.1120E+03  0.1120E+03
    -23.275  0.0000E+00  0.0000E+00  0.1120E+03  0.1120E+03
    -23.034  0.0000E+00  0.0000E+00  0.1120E+03  0.1120E+03
    -22.793  0.0000E+00  0.0000E+00  0.1120E+03  0.1120E+03
    -22.552  0.0000E+00  0.0000E+00  0.1120E+03  0.1120E+03
    -22.311  0.0000E+00  0.0000E+00  0.1120E+03  0.1120E+03
    -22.070  0.0000E+00  0.0000E+00  0.1120E+03  0.1120E+03
    -21.830  0.0000E+00  0.0000E+00  0.1120E+03  0.1120E+03
    -21.589  0.0000E+00  0.0000E+00  0.1120E+03  0.1120E+03
    -21.348  0.0000E+00  0.0000E+00  0.1120E+03  0.1120E+03
    -21.107  0.0000E+00  0.0000E+00  0.1120E+03  0.1120E+03
    -20.866  0.0000E+00  0.0000E+00  0.1120E+03  0.1120E+03
    -20.626  0.0000E+00  0.0000E+00  0.1120E+03  0.1120E+03
    -20.385  0.0000E+00  0.0000E+00  0.1120E+03  0.1120E+03
    -20.144  0.0000E+00  0.0000E+00  0.1120E+03  0.1120E+03
    -19.903  0.0000E+00  0.0000E+00  0.1120E+03  0.1120E+03
    -19.662  0.0000E+00  0.0000E+00  0.1120E+03  0.1120E+03
    -19.421  0.0000E+00  0.0000E+00  0.1120E+03  0.1120E+03
    -19.181  0.0000E+00  0.0000E+00  0.1120E+03  0.1120E+03
    -18.940  0.0000E+00  0.0000E+00  0.1120E+03  0.1120E+03
    -18.699  0.0000E+00  0.0000E+00  0.1120E+03  0.1120E+03
    -18.458  0.0000E+00  0.0000E+00  0.1120E+03  0.1120E+03
    -18.217  0.0000E+00  0.0000E+00  0.1120E+03  0.1120E+03
    -17.977  0.0000E+00  0.0000E+00  0.1120E+03  0.1120E+03
    -17.736  0.0000E+00  0.0000E+00  0.1120E+03  0.1120E+03
    -17.495  0.0000E+00  0.0000E+00  0.1120E+03  0.1120E+03
    -17.254  0.0000E+00  0.0000E+00  0.1120E+03  0.1120E+03
    -17.013  0.0000E+00  0.0000E+00  0.1120E+03  0.1120E+03
    -16.772  0.0000E+00  0.0000E+00  0.1120E+03  0.1120E+03
    -16.532  0.0000E+00  0.0000E+00  0.1120E+03  0.1120E+03
    -16.291  0.0000E+00  0.0000E+00  0.1120E+03  0.1120E+03
    -16.050  0.0000E+00  0.0000E+00  0.1120E+03  0.1120E+03
    -15.809  0.0000E+00  0.0000E+00  0.1120E+03  0.1120E+03
    -15.568  0.0000E+00  0.0000E+00  0.1120E+03  0.1120E+03
    -15.328  0.0000E+00  0.0000E+00  0.1120E+03  0.1120E+03
    -15.087  0.0000E+00  0.0000E+00  0.1120E+03  0.1120E+03
    -14.846  0.0000E+00  0.0000E+00  0.1120E+03  0.1120E+03
    -14.605  0.0000E+00  0.0000E+00  0.1120E+03  0.1120E+03
    -14.364  0.0000E+00  0.0000E+00  0.1120E+03  0.1120E+03
    -14.123  0.0000E+00  0.0000E+00  0.1120E+03  0.1120E+03
    -13.883  0.0000E+00  0.0000E+00  0.1120E+03  0.1120E+03
    -13.642  0.0000E+00  0.0000E+00  0.1120E+03  0.1120E+03
    -13.401  0.6431E-06  0.0000E+00  0.1120E+03  0.1120E+03
    -13.160  0.1902E+02  0.0000E+00  0.1166E+03  0.1120E+03
    -12.919  0.4603E+02  0.7898E-02  0.1277E+03  0.1120E+03
    -12.679  0.1396E+01  0.4236E+02  0.1280E+03  0.1222E+03
    -12.438  0.0000E+00  0.2407E+02  0.1280E+03  0.1280E+03
    -12.197  0.0000E+00  0.0000E+00  0.1280E+03  0.1280E+03
    -11.956  0.0000E+00  0.0000E+00  0.1280E+03  0.1280E+03
    -11.715  0.0000E+00  0.0000E+00  0.1280E+03  0.1280E+03
    -11.475  0.0000E+00  0.0000E+00  0.1280E+03  0.1280E+03
    -11.234  0.0000E+00  0.0000E+00  0.1280E+03  0.1280E+03
    -10.993  0.0000E+00  0.0000E+00  0.1280E+03  0.1280E+03
    -10.752  0.0000E+00  0.0000E+00  0.1280E+03  0.1280E+03
    -10.511  0.0000E+00  0.0000E+00  0.1280E+03  0.1280E+03
    -10.270  0.0000E+00  0.0000E+00  0.1280E+03  0.1280E+03
    -10.030  0.0000E+00  0.0000E+00  0.1280E+03  0.1280E+03
     -9.789  0.0000E+00  0.0000E+00  0.1280E+03  0.1280E+03
     -9.548  0.0000E+00  0.0000E+00  0.1280E+03  0.1280E+03
     -9.307  0.0000E+00  0.0000E+00  0.1280E+03  0.1280E+03
     -9.066  0.0000E+00  0.0000E+00  0.1280E+03  0.1280E+03
     -8.826  0.0000E+00  0.0000E+00  0.1280E+03  0.1280E+03
     -8.585  0.0000E+00  0.0000E+00  0.1280E+03  0.1280E+03
     -8.344  0.0000E+00  0.0000E+00  0.1280E+03  0.1280E+03
     -8.103  0.0000E+00  0.0000E+00  0.1280E+03  0.1280E+03
     -7.862  0.6757E-10  0.0000E+00  0.1280E+03  0.1280E+03
     -7.621  0.5660E+00  0.1201E-10  0.1281E+03  0.1280E+03
     -7.381  0.1257E+02  0.4982E+00  0.1312E+03  0.1281E+03
     -7.140  0.3026E+02  0.1381E+02  0.1384E+03  0.1314E+03
     -6.899  0.3398E+02  0.2948E+02  0.1466E+03  0.1385E+03
     -6.658  0.2229E+02  0.2607E+02  0.1520E+03  0.1448E+03
     -6.417  0.2343E-04  0.2975E+02  0.1520E+03  0.1520E+03
     -6.177  0.0000E+00  0.5745E-01  0.1520E+03  0.1520E+03
     -5.936  0.0000E+00  0.0000E+00  0.1520E+03  0.1520E+03
     -5.695  0.0000E+00  0.0000E+00  0.1520E+03  0.1520E+03
     -5.454  0.0000E+00  0.0000E+00  0.1520E+03  0.1520E+03
     -5.213  0.0000E+00  0.0000E+00  0.1520E+03  0.1520E+03
     -4.972  0.0000E+00  0.0000E+00  0.1520E+03  0.1520E+03
     -4.732  0.0000E+00  0.0000E+00  0.1520E+03  0.1520E+03
     -4.491  0.0000E+00  0.0000E+00  0.1520E+03  0.1520E+03
     -4.250  0.0000E+00  0.0000E+00  0.1520E+03  0.1520E+03
     -4.009  0.0000E+00  0.0000E+00  0.1520E+03  0.1520E+03
     -3.768  0.0000E+00  0.0000E+00  0.1520E+03  0.1520E+03
     -3.528  0.0000E+00  0.0000E+00  0.1520E+03  0.1520E+03
     -3.287  0.0000E+00  0.0000E+00  0.1520E+03  0.1520E+03
     -3.046  0.0000E+00  0.0000E+00  0.1520E+03  0.1520E+03
     -2.805  0.0000E+00  0.0000E+00  0.1520E+03  0.1520E+03
     -2.564  0.0000E+00  0.0000E+00  0.1520E+03  0.1520E+03
     -2.323  0.0000E+00  0.0000E+00  0.1520E+03  0.1520E+03
     -2.083  0.2257E-04  0.0000E+00  0.1520E+03  0.1520E+03
     -1.842  0.1589E+02  0.0000E+00  0.1558E+03  0.1520E+03
     -1.601  0.1958E+02  0.0000E+00  0.1605E+03  0.1520E+03
     -1.360  0.1483E+02  0.0000E+00  0.1641E+03  0.1520E+03
     -1.119  0.1710E+02  0.0000E+00  0.1682E+03  0.1520E+03
     -0.879  0.4575E+02  0.0000E+00  0.1792E+03  0.1520E+03
     -0.638  0.5899E+02  0.8151E-06  0.1935E+03  0.1520E+03
     -0.397  0.3869E+02  0.4104E+01  0.2028E+03  0.1530E+03
     -0.156  0.6785E+02  0.2035E+02  0.2191E+03  0.1579E+03
      0.085  0.7377E+02  0.1224E+02  0.2369E+03  0.1608E+03
      0.326  0.7756E+02  0.1850E+02  0.2556E+03  0.1653E+03
      0.566  0.6983E+02  0.2954E+02  0.2724E+03  0.1724E+03
      0.807  0.5575E+02  0.3918E+02  0.2858E+03  0.1818E+03
      1.048  0.3643E+02  0.3732E+02  0.2946E+03  0.1908E+03
      1.289  0.3056E+02  0.3127E+02  0.3019E+03  0.1984E+03
      1.530  0.4507E+02  0.2072E+02  0.3128E+03  0.2033E+03
      1.770  0.4212E+02  0.2897E+02  0.3229E+03  0.2103E+03
      2.011  0.6884E+02  0.3684E+02  0.3395E+03  0.2192E+03
      2.252  0.5817E+02  0.2772E+02  0.3535E+03  0.2259E+03
      2.493  0.2676E+02  0.2700E+02  0.3600E+03  0.2324E+03
      2.734  0.4264E+02  0.3061E+02  0.3702E+03  0.2397E+03
      2.975  0.3033E+02  0.4433E+02  0.3775E+03  0.2504E+03
      3.215  0.8653E+01  0.4552E+02  0.3796E+03  0.2614E+03
      3.456  0.2779E+02  0.3233E+02  0.3863E+03  0.2692E+03
      3.697  0.2730E+02  0.1251E+02  0.3929E+03  0.2722E+03
      3.938  0.3087E+02  0.1758E+02  0.4003E+03  0.2764E+03
      4.179  0.3592E+02  0.5260E+02  0.4090E+03  0.2891E+03
      4.419  0.3636E+02  0.4476E+02  0.4177E+03  0.2999E+03
      4.660  0.3029E+02  0.1719E+02  0.4250E+03  0.3040E+03
      4.901  0.2582E+02  0.5487E-02  0.4312E+03  0.3040E+03
      5.142  0.3229E+01  0.0000E+00  0.4320E+03  0.3040E+03
      5.383  0.0000E+00  0.0000E+00  0.4320E+03  0.3040E+03
      5.623  0.0000E+00  0.0000E+00  0.4320E+03  0.3040E+03
      5.864  0.0000E+00  0.0000E+00  0.4320E+03  0.3040E+03
      6.105  0.0000E+00  0.2950E-09  0.4320E+03  0.3040E+03
      6.346  0.0000E+00  0.3905E+00  0.4320E+03  0.3041E+03
      6.587  0.0000E+00  0.4195E+01  0.4320E+03  0.3051E+03
      6.828  0.0000E+00  0.7835E+01  0.4320E+03  0.3070E+03
      7.068  0.5379E-15  0.1915E+02  0.4320E+03  0.3116E+03
      7.309  0.2543E-01  0.4410E+02  0.4320E+03  0.3222E+03
      7.550  0.1284E+00  0.5329E+02  0.4320E+03  0.3351E+03
      7.791  0.2391E+00  0.6337E+02  0.4321E+03  0.3503E+03
      8.032  0.7353E+00  0.6581E+02  0.4323E+03  0.3662E+03
      8.272  0.2102E+01  0.7004E+02  0.4328E+03  0.3830E+03
      8.513  0.2640E+01  0.5934E+02  0.4334E+03  0.3973E+03
      8.754  0.8879E+01  0.5864E+02  0.4356E+03  0.4114E+03
      8.995  0.1244E+02  0.4802E+02  0.4385E+03  0.4230E+03
      9.236  0.1309E+02  0.3004E+02  0.4417E+03  0.4302E+03
      9.477  0.1805E+02  0.8959E+01  0.4460E+03  0.4324E+03
      9.717  0.1629E+02  0.2989E+01  0.4500E+03  0.4331E+03
      9.958  0.1570E+02  0.8335E+01  0.4538E+03  0.4351E+03
     10.199  0.2248E+02  0.1863E+02  0.4592E+03  0.4396E+03
     10.440  0.1484E+02  0.1798E+02  0.4627E+03  0.4439E+03
     10.681  0.1534E+02  0.1715E+02  0.4664E+03  0.4481E+03
     10.921  0.1316E+02  0.2759E+02  0.4696E+03  0.4547E+03
     11.162  0.2061E+02  0.1898E+02  0.4746E+03  0.4593E+03
     11.403  0.2470E+02  0.2395E+02  0.4805E+03  0.4650E+03
     11.644  0.2730E+02  0.1490E+02  0.4871E+03  0.4686E+03
     11.885  0.2457E+02  0.1378E+02  0.4930E+03  0.4720E+03
     12.126  0.3357E+02  0.1599E+02  0.5011E+03  0.4758E+03
     12.366  0.1991E+02  0.3664E+02  0.5059E+03  0.4846E+03
     12.607  0.2305E+02  0.3270E+02  0.5114E+03  0.4925E+03
     12.848  0.2141E+02  0.2996E+02  0.5166E+03  0.4997E+03
     13.089  0.2034E+02  0.2027E+02  0.5215E+03  0.5046E+03
     13.330  0.2382E+02  0.2212E+02  0.5272E+03  0.5099E+03
     13.570  0.2441E+02  0.2722E+02  0.5331E+03  0.5165E+03
     13.811  0.1358E+02  0.2373E+02  0.5364E+03  0.5222E+03
     14.052  0.6756E+01  0.2630E+02  0.5380E+03  0.5285E+03
     14.293  0.3771E-02  0.1929E+02  0.5380E+03  0.5332E+03
     14.534  0.0000E+00  0.1690E+02  0.5380E+03  0.5372E+03
     14.775  0.0000E+00  0.3134E+01  0.5380E+03  0.5380E+03
     15.015  0.0000E+00  0.2247E-05  0.5380E+03  0.5380E+03
     15.256  0.0000E+00  0.0000E+00  0.5380E+03  0.5380E+03
     15.497  0.0000E+00  0.0000E+00  0.5380E+03  0.5380E+03
     15.738  0.0000E+00  0.0000E+00  0.5380E+03  0.5380E+03
     15.979  0.0000E+00  0.0000E+00  0.5380E+03  0.5380E+03
     16.219  0.0000E+00  0.0000E+00  0.5380E+03  0.5380E+03
     16.460  0.0000E+00  0.0000E+00  0.5380E+03  0.5380E+03
     16.701  0.0000E+00  0.0000E+00  0.5380E+03  0.5380E+03
     16.942  0.0000E+00  0.0000E+00  0.5380E+03  0.5380E+03
     17.183  0.0000E+00  0.0000E+00  0.5380E+03  0.5380E+03
     17.424  0.0000E+00  0.0000E+00  0.5380E+03  0.5380E+03
     17.664  0.0000E+00  0.0000E+00  0.5380E+03  0.5380E+03
     17.905  0.0000E+00  0.0000E+00  0.5380E+03  0.5380E+03
