 120 120   0   0
  0.1228332E+02  0.1173587E-08  0.1121847E-08  0.1119562E-08  0.5000000E-15
  1.000000000000000E-004
  CAR 
 unknown system                          
     16.73569814    -54.73168144  301      4.40757516      1.00000000
    -54.732  0.0000E+00  0.0000E+00  0.0000E+00  0.0000E+00
    -54.493  0.0000E+00  0.0000E+00  0.0000E+00  0.0000E+00
    -54.255  0.0000E+00  0.0000E+00  0.0000E+00  0.0000E+00
    -54.017  0.0000E+00  0.0000E+00  0.0000E+00  0.0000E+00
    -53.779  0.0000E+00  0.0000E+00  0.0000E+00  0.0000E+00
    -53.541  0.0000E+00  0.0000E+00  0.0000E+00  0.0000E+00
    -53.302  0.0000E+00  0.0000E+00  0.0000E+00  0.0000E+00
    -53.064  0.0000E+00  0.0000E+00  0.0000E+00  0.0000E+00
    -52.826  0.0000E+00  0.0000E+00  0.0000E+00  0.0000E+00
    -52.588  0.0000E+00  0.0000E+00  0.0000E+00  0.0000E+00
    -52.349  0.0000E+00  0.0000E+00  0.0000E+00  0.0000E+00
    -52.111  0.0000E+00  0.0000E+00  0.0000E+00  0.0000E+00
    -51.873  0.0000E+00  0.0000E+00  0.0000E+00  0.0000E+00
    -51.635  0.2472E-03  0.0000E+00  0.5888E-04  0.0000E+00
    -51.397  0.9782E+02  0.0000E+00  0.2330E+02  0.0000E+00
    -51.158  0.2929E+01  0.0000E+00  0.2400E+02  0.0000E+00
    -50.920  0.0000E+00  0.0000E+00  0.2400E+02  0.0000E+00
    -50.682  0.0000E+00  0.0000E+00  0.2400E+02  0.0000E+00
    -50.444  0.2390E-09  0.0000E+00  0.2400E+02  0.0000E+00
    -50.205  0.4292E+02  0.0000E+00  0.3422E+02  0.0000E+00
    -49.967  0.1321E+03  0.0000E+00  0.6568E+02  0.0000E+00
    -49.729  0.2652E+02  0.0000E+00  0.7200E+02  0.0000E+00
    -49.491  0.0000E+00  0.0000E+00  0.7200E+02  0.0000E+00
    -49.253  0.0000E+00  0.0000E+00  0.7200E+02  0.0000E+00
    -49.014  0.0000E+00  0.0000E+00  0.7200E+02  0.0000E+00
    -48.776  0.0000E+00  0.0000E+00  0.7200E+02  0.0000E+00
    -48.538  0.0000E+00  0.0000E+00  0.7200E+02  0.0000E+00
    -48.300  0.0000E+00  0.0000E+00  0.7200E+02  0.0000E+00
    -48.061  0.0000E+00  0.0000E+00  0.7200E+02  0.0000E+00
    -47.823  0.0000E+00  0.0000E+00  0.7200E+02  0.0000E+00
    -47.585  0.0000E+00  0.0000E+00  0.7200E+02  0.0000E+00
    -47.347  0.0000E+00  0.0000E+00  0.7200E+02  0.0000E+00
    -47.108  0.0000E+00  0.0000E+00  0.7200E+02  0.0000E+00
    -46.870  0.0000E+00  0.6254E-01  0.7200E+02  0.1490E-01
    -46.632  0.0000E+00  0.1006E+03  0.7200E+02  0.2397E+02
    -46.394  0.0000E+00  0.9579E+02  0.7200E+02  0.4679E+02
    -46.156  0.0000E+00  0.1058E+03  0.7200E+02  0.7200E+02
    -45.917  0.0000E+00  0.0000E+00  0.7200E+02  0.7200E+02
    -45.679  0.0000E+00  0.0000E+00  0.7200E+02  0.7200E+02
    -45.441  0.0000E+00  0.0000E+00  0.7200E+02  0.7200E+02
    -45.203  0.0000E+00  0.0000E+00  0.7200E+02  0.7200E+02
    -44.964  0.0000E+00  0.0000E+00  0.7200E+02  0.7200E+02
    -44.726  0.0000E+00  0.0000E+00  0.7200E+02  0.7200E+02
    -44.488  0.0000E+00  0.0000E+00  0.7200E+02  0.7200E+02
    -44.250  0.0000E+00  0.0000E+00  0.7200E+02  0.7200E+02
    -44.012  0.0000E+00  0.0000E+00  0.7200E+02  0.7200E+02
    -43.773  0.0000E+00  0.0000E+00  0.7200E+02  0.7200E+02
    -43.535  0.0000E+00  0.0000E+00  0.7200E+02  0.7200E+02
    -43.297  0.0000E+00  0.0000E+00  0.7200E+02  0.7200E+02
    -43.059  0.0000E+00  0.0000E+00  0.7200E+02  0.7200E+02
    -42.820  0.0000E+00  0.0000E+00  0.7200E+02  0.7200E+02
    -42.582  0.0000E+00  0.0000E+00  0.7200E+02  0.7200E+02
    -42.344  0.0000E+00  0.0000E+00  0.7200E+02  0.7200E+02
    -42.106  0.0000E+00  0.0000E+00  0.7200E+02  0.7200E+02
    -41.868  0.0000E+00  0.0000E+00  0.7200E+02  0.7200E+02
    -41.629  0.0000E+00  0.0000E+00  0.7200E+02  0.7200E+02
    -41.391  0.0000E+00  0.0000E+00  0.7200E+02  0.7200E+02
    -41.153  0.0000E+00  0.0000E+00  0.7200E+02  0.7200E+02
    -40.915  0.0000E+00  0.0000E+00  0.7200E+02  0.7200E+02
    -40.676  0.3690E-03  0.9605E-04  0.7200E+02  0.7200E+02
    -40.438  0.9912E+02  0.9761E+02  0.9561E+02  0.9525E+02
    -40.200  0.1022E+03  0.1038E+03  0.1200E+03  0.1200E+03
    -39.962  0.1287E+00  0.1110E+00  0.1200E+03  0.1200E+03
    -39.724  0.0000E+00  0.0000E+00  0.1200E+03  0.1200E+03
    -39.485  0.0000E+00  0.0000E+00  0.1200E+03  0.1200E+03
    -39.247  0.0000E+00  0.0000E+00  0.1200E+03  0.1200E+03
    -39.009  0.0000E+00  0.0000E+00  0.1200E+03  0.1200E+03
    -38.771  0.0000E+00  0.0000E+00  0.1200E+03  0.1200E+03
    -38.532  0.0000E+00  0.0000E+00  0.1200E+03  0.1200E+03
    -38.294  0.0000E+00  0.0000E+00  0.1200E+03  0.1200E+03
    -38.056  0.0000E+00  0.0000E+00  0.1200E+03  0.1200E+03
    -37.818  0.0000E+00  0.0000E+00  0.1200E+03  0.1200E+03
    -37.580  0.0000E+00  0.0000E+00  0.1200E+03  0.1200E+03
    -37.341  0.0000E+00  0.0000E+00  0.1200E+03  0.1200E+03
    -37.103  0.0000E+00  0.0000E+00  0.1200E+03  0.1200E+03
    -36.865  0.0000E+00  0.0000E+00  0.1200E+03  0.1200E+03
    -36.627  0.0000E+00  0.0000E+00  0.1200E+03  0.1200E+03
    -36.388  0.0000E+00  0.0000E+00  0.1200E+03  0.1200E+03
    -36.150  0.0000E+00  0.0000E+00  0.1200E+03  0.1200E+03
    -35.912  0.0000E+00  0.0000E+00  0.1200E+03  0.1200E+03
    -35.674  0.0000E+00  0.0000E+00  0.1200E+03  0.1200E+03
    -35.435  0.0000E+00  0.0000E+00  0.1200E+03  0.1200E+03
    -35.197  0.0000E+00  0.0000E+00  0.1200E+03  0.1200E+03
    -34.959  0.0000E+00  0.0000E+00  0.1200E+03  0.1200E+03
    -34.721  0.0000E+00  0.0000E+00  0.1200E+03  0.1200E+03
    -34.483  0.0000E+00  0.0000E+00  0.1200E+03  0.1200E+03
    -34.244  0.0000E+00  0.0000E+00  0.1200E+03  0.1200E+03
    -34.006  0.0000E+00  0.0000E+00  0.1200E+03  0.1200E+03
    -33.768  0.0000E+00  0.0000E+00  0.1200E+03  0.1200E+03
    -33.530  0.0000E+00  0.0000E+00  0.1200E+03  0.1200E+03
    -33.291  0.0000E+00  0.0000E+00  0.1200E+03  0.1200E+03
    -33.053  0.0000E+00  0.0000E+00  0.1200E+03  0.1200E+03
    -32.815  0.0000E+00  0.0000E+00  0.1200E+03  0.1200E+03
    -32.577  0.0000E+00  0.0000E+00  0.1200E+03  0.1200E+03
    -32.339  0.0000E+00  0.0000E+00  0.1200E+03  0.1200E+03
    -32.100  0.0000E+00  0.0000E+00  0.1200E+03  0.1200E+03
    -31.862  0.0000E+00  0.0000E+00  0.1200E+03  0.1200E+03
    -31.624  0.0000E+00  0.0000E+00  0.1200E+03  0.1200E+03
    -31.386  0.0000E+00  0.0000E+00  0.1200E+03  0.1200E+03
    -31.147  0.0000E+00  0.0000E+00  0.1200E+03  0.1200E+03
    -30.909  0.0000E+00  0.0000E+00  0.1200E+03  0.1200E+03
    -30.671  0.0000E+00  0.0000E+00  0.1200E+03  0.1200E+03
    -30.433  0.0000E+00  0.0000E+00  0.1200E+03  0.1200E+03
    -30.195  0.0000E+00  0.0000E+00  0.1200E+03  0.1200E+03
    -29.956  0.0000E+00  0.0000E+00  0.1200E+03  0.1200E+03
    -29.718  0.0000E+00  0.0000E+00  0.1200E+03  0.1200E+03
    -29.480  0.0000E+00  0.0000E+00  0.1200E+03  0.1200E+03
    -29.242  0.0000E+00  0.0000E+00  0.1200E+03  0.1200E+03
    -29.003  0.0000E+00  0.0000E+00  0.1200E+03  0.1200E+03
    -28.765  0.0000E+00  0.0000E+00  0.1200E+03  0.1200E+03
    -28.527  0.0000E+00  0.0000E+00  0.1200E+03  0.1200E+03
    -28.289  0.0000E+00  0.0000E+00  0.1200E+03  0.1200E+03
    -28.051  0.0000E+00  0.0000E+00  0.1200E+03  0.1200E+03
    -27.812  0.0000E+00  0.0000E+00  0.1200E+03  0.1200E+03
    -27.574  0.0000E+00  0.0000E+00  0.1200E+03  0.1200E+03
    -27.336  0.0000E+00  0.0000E+00  0.1200E+03  0.1200E+03
    -27.098  0.0000E+00  0.0000E+00  0.1200E+03  0.1200E+03
    -26.859  0.0000E+00  0.0000E+00  0.1200E+03  0.1200E+03
    -26.621  0.0000E+00  0.0000E+00  0.1200E+03  0.1200E+03
    -26.383  0.0000E+00  0.0000E+00  0.1200E+03  0.1200E+03
    -26.145  0.0000E+00  0.0000E+00  0.1200E+03  0.1200E+03
    -25.907  0.0000E+00  0.0000E+00  0.1200E+03  0.1200E+03
    -25.668  0.0000E+00  0.0000E+00  0.1200E+03  0.1200E+03
    -25.430  0.0000E+00  0.0000E+00  0.1200E+03  0.1200E+03
    -25.192  0.0000E+00  0.0000E+00  0.1200E+03  0.1200E+03
    -24.954  0.0000E+00  0.0000E+00  0.1200E+03  0.1200E+03
    -24.715  0.0000E+00  0.0000E+00  0.1200E+03  0.1200E+03
    -24.477  0.0000E+00  0.0000E+00  0.1200E+03  0.1200E+03
    -24.239  0.0000E+00  0.0000E+00  0.1200E+03  0.1200E+03
    -24.001  0.0000E+00  0.0000E+00  0.1200E+03  0.1200E+03
    -23.762  0.0000E+00  0.0000E+00  0.1200E+03  0.1200E+03
    -23.524  0.0000E+00  0.0000E+00  0.1200E+03  0.1200E+03
    -23.286  0.0000E+00  0.0000E+00  0.1200E+03  0.1200E+03
    -23.048  0.0000E+00  0.0000E+00  0.1200E+03  0.1200E+03
    -22.810  0.0000E+00  0.0000E+00  0.1200E+03  0.1200E+03
    -22.571  0.0000E+00  0.0000E+00  0.1200E+03  0.1200E+03
    -22.333  0.0000E+00  0.0000E+00  0.1200E+03  0.1200E+03
    -22.095  0.0000E+00  0.0000E+00  0.1200E+03  0.1200E+03
    -21.857  0.0000E+00  0.0000E+00  0.1200E+03  0.1200E+03
    -21.618  0.0000E+00  0.0000E+00  0.1200E+03  0.1200E+03
    -21.380  0.0000E+00  0.0000E+00  0.1200E+03  0.1200E+03
    -21.142  0.0000E+00  0.0000E+00  0.1200E+03  0.1200E+03
    -20.904  0.0000E+00  0.0000E+00  0.1200E+03  0.1200E+03
    -20.666  0.0000E+00  0.0000E+00  0.1200E+03  0.1200E+03
    -20.427  0.0000E+00  0.0000E+00  0.1200E+03  0.1200E+03
    -20.189  0.0000E+00  0.0000E+00  0.1200E+03  0.1200E+03
    -19.951  0.0000E+00  0.0000E+00  0.1200E+03  0.1200E+03
    -19.713  0.0000E+00  0.0000E+00  0.1200E+03  0.1200E+03
    -19.474  0.0000E+00  0.0000E+00  0.1200E+03  0.1200E+03
    -19.236  0.0000E+00  0.0000E+00  0.1200E+03  0.1200E+03
    -18.998  0.0000E+00  0.0000E+00  0.1200E+03  0.1200E+03
    -18.760  0.0000E+00  0.0000E+00  0.1200E+03  0.1200E+03
    -18.522  0.0000E+00  0.0000E+00  0.1200E+03  0.1200E+03
    -18.283  0.0000E+00  0.0000E+00  0.1200E+03  0.1200E+03
    -18.045  0.0000E+00  0.0000E+00  0.1200E+03  0.1200E+03
    -17.807  0.0000E+00  0.0000E+00  0.1200E+03  0.1200E+03
    -17.569  0.0000E+00  0.0000E+00  0.1200E+03  0.1200E+03
    -17.330  0.0000E+00  0.0000E+00  0.1200E+03  0.1200E+03
    -17.092  0.0000E+00  0.0000E+00  0.1200E+03  0.1200E+03
    -16.854  0.0000E+00  0.0000E+00  0.1200E+03  0.1200E+03
    -16.616  0.0000E+00  0.0000E+00  0.1200E+03  0.1200E+03
    -16.378  0.0000E+00  0.0000E+00  0.1200E+03  0.1200E+03
    -16.139  0.0000E+00  0.0000E+00  0.1200E+03  0.1200E+03
    -15.901  0.0000E+00  0.0000E+00  0.1200E+03  0.1200E+03
    -15.663  0.0000E+00  0.0000E+00  0.1200E+03  0.1200E+03
    -15.425  0.0000E+00  0.0000E+00  0.1200E+03  0.1200E+03
    -15.186  0.0000E+00  0.0000E+00  0.1200E+03  0.1200E+03
    -14.948  0.0000E+00  0.0000E+00  0.1200E+03  0.1200E+03
    -14.710  0.0000E+00  0.0000E+00  0.1200E+03  0.1200E+03
    -14.472  0.0000E+00  0.0000E+00  0.1200E+03  0.1200E+03
    -14.233  0.0000E+00  0.0000E+00  0.1200E+03  0.1200E+03
    -13.995  0.0000E+00  0.0000E+00  0.1200E+03  0.1200E+03
    -13.757  0.2186E-08  0.0000E+00  0.1200E+03  0.1200E+03
    -13.519  0.9602E+01  0.4488E-15  0.1223E+03  0.1200E+03
    -13.281  0.6004E+02  0.3982E+00  0.1366E+03  0.1201E+03
    -13.042  0.3111E+02  0.6825E+02  0.1440E+03  0.1364E+03
    -12.804  0.1897E-03  0.3210E+02  0.1440E+03  0.1440E+03
    -12.566  0.0000E+00  0.1892E-04  0.1440E+03  0.1440E+03
    -12.328  0.0000E+00  0.0000E+00  0.1440E+03  0.1440E+03
    -12.089  0.0000E+00  0.0000E+00  0.1440E+03  0.1440E+03
    -11.851  0.0000E+00  0.0000E+00  0.1440E+03  0.1440E+03
    -11.613  0.0000E+00  0.0000E+00  0.1440E+03  0.1440E+03
    -11.375  0.0000E+00  0.0000E+00  0.1440E+03  0.1440E+03
    -11.137  0.0000E+00  0.0000E+00  0.1440E+03  0.1440E+03
    -10.898  0.0000E+00  0.0000E+00  0.1440E+03  0.1440E+03
    -10.660  0.0000E+00  0.0000E+00  0.1440E+03  0.1440E+03
    -10.422  0.0000E+00  0.0000E+00  0.1440E+03  0.1440E+03
    -10.184  0.0000E+00  0.0000E+00  0.1440E+03  0.1440E+03
     -9.945  0.0000E+00  0.0000E+00  0.1440E+03  0.1440E+03
     -9.707  0.0000E+00  0.0000E+00  0.1440E+03  0.1440E+03
     -9.469  0.0000E+00  0.0000E+00  0.1440E+03  0.1440E+03
     -9.231  0.0000E+00  0.0000E+00  0.1440E+03  0.1440E+03
     -8.993  0.0000E+00  0.0000E+00  0.1440E+03  0.1440E+03
     -8.754  0.0000E+00  0.0000E+00  0.1440E+03  0.1440E+03
     -8.516  0.0000E+00  0.0000E+00  0.1440E+03  0.1440E+03
     -8.278  0.0000E+00  0.0000E+00  0.1440E+03  0.1440E+03
     -8.040  0.0000E+00  0.0000E+00  0.1440E+03  0.1440E+03
     -7.801  0.1526E-01  0.5351E-15  0.1440E+03  0.1440E+03
     -7.563  0.1889E+02  0.1628E+00  0.1485E+03  0.1440E+03
     -7.325  0.4845E+02  0.2956E+02  0.1600E+03  0.1511E+03
     -7.087  0.3263E+02  0.4934E+02  0.1678E+03  0.1628E+03
     -6.849  0.7637E+00  0.2110E+02  0.1680E+03  0.1679E+03
     -6.610  0.0000E+00  0.5853E+00  0.1680E+03  0.1680E+03
     -6.372  0.0000E+00  0.0000E+00  0.1680E+03  0.1680E+03
     -6.134  0.0000E+00  0.0000E+00  0.1680E+03  0.1680E+03
     -5.896  0.0000E+00  0.0000E+00  0.1680E+03  0.1680E+03
     -5.657  0.0000E+00  0.0000E+00  0.1680E+03  0.1680E+03
     -5.419  0.0000E+00  0.0000E+00  0.1680E+03  0.1680E+03
     -5.181  0.0000E+00  0.0000E+00  0.1680E+03  0.1680E+03
     -4.943  0.0000E+00  0.0000E+00  0.1680E+03  0.1680E+03
     -4.705  0.0000E+00  0.0000E+00  0.1680E+03  0.1680E+03
     -4.466  0.0000E+00  0.0000E+00  0.1680E+03  0.1680E+03
     -4.228  0.0000E+00  0.0000E+00  0.1680E+03  0.1680E+03
     -3.990  0.0000E+00  0.0000E+00  0.1680E+03  0.1680E+03
     -3.752  0.0000E+00  0.0000E+00  0.1680E+03  0.1680E+03
     -3.513  0.0000E+00  0.0000E+00  0.1680E+03  0.1680E+03
     -3.275  0.0000E+00  0.0000E+00  0.1680E+03  0.1680E+03
     -3.037  0.0000E+00  0.0000E+00  0.1680E+03  0.1680E+03
     -2.799  0.0000E+00  0.0000E+00  0.1680E+03  0.1680E+03
     -2.560  0.0000E+00  0.0000E+00  0.1680E+03  0.1680E+03
     -2.322  0.0000E+00  0.0000E+00  0.1680E+03  0.1680E+03
     -2.084  0.3730E-05  0.0000E+00  0.1680E+03  0.1680E+03
     -1.846  0.8583E+01  0.0000E+00  0.1700E+03  0.1680E+03
     -1.608  0.5876E+02  0.0000E+00  0.1840E+03  0.1680E+03
     -1.369  0.4075E+02  0.0000E+00  0.1937E+03  0.1680E+03
     -1.131  0.3272E+02  0.0000E+00  0.2015E+03  0.1680E+03
     -0.893  0.5433E+02  0.4376E-08  0.2145E+03  0.1680E+03
     -0.655  0.5319E+02  0.1940E+01  0.2272E+03  0.1685E+03
     -0.416  0.6724E+02  0.1756E+02  0.2432E+03  0.1726E+03
     -0.178  0.5387E+02  0.3885E+02  0.2560E+03  0.1819E+03
      0.060  0.3454E+02  0.3477E+02  0.2642E+03  0.1902E+03
      0.298  0.5528E+02  0.2327E+02  0.2774E+03  0.1957E+03
      0.536  0.4747E+02  0.4869E+02  0.2887E+03  0.2073E+03
      0.775  0.3243E+02  0.4872E+02  0.2964E+03  0.2189E+03
      1.013  0.4997E+02  0.6850E+02  0.3083E+03  0.2353E+03
      1.251  0.4935E+02  0.2541E+02  0.3201E+03  0.2413E+03
      1.489  0.5420E+02  0.2326E+02  0.3330E+03  0.2468E+03
      1.728  0.6186E+02  0.3836E+02  0.3477E+03  0.2560E+03
      1.966  0.3374E+02  0.4593E+02  0.3558E+03  0.2669E+03
      2.204  0.2400E+02  0.2930E+02  0.3615E+03  0.2739E+03
      2.442  0.1386E+02  0.3573E+02  0.3648E+03  0.2824E+03
      2.680  0.3760E+02  0.2542E+02  0.3738E+03  0.2885E+03
      2.919  0.3871E+02  0.4571E+02  0.3830E+03  0.2994E+03
      3.157  0.3047E+02  0.4174E+02  0.3902E+03  0.3093E+03
      3.395  0.4392E+02  0.1419E+02  0.4007E+03  0.3127E+03
      3.633  0.5361E+02  0.3119E+02  0.4135E+03  0.3201E+03
      3.872  0.4703E+02  0.5675E+02  0.4247E+03  0.3336E+03
      4.110  0.2885E+02  0.9941E+01  0.4316E+03  0.3360E+03
      4.348  0.1868E+01  0.5573E-05  0.4320E+03  0.3360E+03
      4.586  0.0000E+00  0.0000E+00  0.4320E+03  0.3360E+03
      4.824  0.0000E+00  0.0000E+00  0.4320E+03  0.3360E+03
      5.063  0.0000E+00  0.0000E+00  0.4320E+03  0.3360E+03
      5.301  0.0000E+00  0.0000E+00  0.4320E+03  0.3360E+03
      5.539  0.0000E+00  0.0000E+00  0.4320E+03  0.3360E+03
      5.777  0.0000E+00  0.0000E+00  0.4320E+03  0.3360E+03
      6.016  0.0000E+00  0.4930E-02  0.4320E+03  0.3360E+03
      6.254  0.0000E+00  0.1955E+01  0.4320E+03  0.3365E+03
      6.492  0.0000E+00  0.1370E+02  0.4320E+03  0.3397E+03
      6.730  0.0000E+00  0.2697E+02  0.4320E+03  0.3462E+03
      6.968  0.0000E+00  0.2528E+02  0.4320E+03  0.3522E+03
      7.207  0.1289E-04  0.5815E+02  0.4320E+03  0.3660E+03
      7.445  0.1552E+00  0.7521E+02  0.4320E+03  0.3839E+03
      7.683  0.7554E+00  0.2930E+02  0.4322E+03  0.3909E+03
      7.921  0.1529E+01  0.4135E+02  0.4326E+03  0.4008E+03
      8.160  0.4825E+01  0.7836E+02  0.4337E+03  0.4194E+03
      8.398  0.7181E+01  0.4947E+02  0.4354E+03  0.4312E+03
      8.636  0.1572E+02  0.3634E+01  0.4392E+03  0.4321E+03
      8.874  0.2399E+02  0.1175E+01  0.4449E+03  0.4324E+03
      9.113  0.1981E+02  0.4508E+01  0.4496E+03  0.4335E+03
      9.351  0.1938E+02  0.1082E+02  0.4542E+03  0.4360E+03
      9.589  0.1983E+02  0.2113E+02  0.4590E+03  0.4411E+03
      9.827  0.2445E+02  0.2884E+02  0.4648E+03  0.4479E+03
     10.065  0.2200E+02  0.3013E+02  0.4700E+03  0.4551E+03
     10.304  0.1793E+02  0.3002E+02  0.4743E+03  0.4623E+03
     10.542  0.2474E+02  0.2579E+02  0.4802E+03  0.4684E+03
     10.780  0.1491E+02  0.2586E+02  0.4837E+03  0.4746E+03
     11.018  0.2761E+02  0.2421E+02  0.4903E+03  0.4803E+03
     11.257  0.4553E+02  0.1036E+02  0.5012E+03  0.4828E+03
     11.495  0.4862E+02  0.2589E+02  0.5128E+03  0.4890E+03
     11.733  0.3510E+02  0.3062E+02  0.5211E+03  0.4963E+03
     11.971  0.2032E+02  0.5647E+02  0.5260E+03  0.5097E+03
     12.209  0.2078E+02  0.4438E+02  0.5309E+03  0.5203E+03
     12.448  0.3026E+02  0.2674E+02  0.5381E+03  0.5267E+03
     12.686  0.3225E+02  0.2379E+02  0.5458E+03  0.5323E+03
     12.924  0.1836E+02  0.2747E+02  0.5502E+03  0.5389E+03
     13.162  0.7589E+01  0.3297E+02  0.5520E+03  0.5467E+03
     13.401  0.9120E-01  0.1805E+02  0.5520E+03  0.5510E+03
     13.639  0.0000E+00  0.4080E+01  0.5520E+03  0.5520E+03
     13.877  0.0000E+00  0.3998E-05  0.5520E+03  0.5520E+03
     14.115  0.0000E+00  0.0000E+00  0.5520E+03  0.5520E+03
     14.353  0.0000E+00  0.0000E+00  0.5520E+03  0.5520E+03
     14.592  0.0000E+00  0.0000E+00  0.5520E+03  0.5520E+03
     14.830  0.0000E+00  0.0000E+00  0.5520E+03  0.5520E+03
     15.068  0.0000E+00  0.0000E+00  0.5520E+03  0.5520E+03
     15.306  0.0000E+00  0.0000E+00  0.5520E+03  0.5520E+03
     15.545  0.0000E+00  0.0000E+00  0.5520E+03  0.5520E+03
     15.783  0.0000E+00  0.0000E+00  0.5520E+03  0.5520E+03
     16.021  0.0000E+00  0.0000E+00  0.5520E+03  0.5520E+03
     16.259  0.0000E+00  0.0000E+00  0.5520E+03  0.5520E+03
     16.497  0.0000E+00  0.0000E+00  0.5520E+03  0.5520E+03
     16.736  0.0000E+00  0.0000E+00  0.5520E+03  0.5520E+03
