 vasp.5.4.4.18Apr17-6-g9f103f2a35 (build Oct 25 2017 14:42:18) complex          
  
 executed on             LinuxIFC date 2021.04.16  13:53:09
 running on   48 total cores
 distrk:  each k-point on   24 cores,    2 groups
 distr:  one band on NCORES_PER_BAND=   6 cores,    4 groups


--------------------------------------------------------------------------------------------------------


 INCAR:
 POTCAR:    PAW_PBE Li_sv 10Sep2004               
 POTCAR:    PAW_PBE O 08Apr2002                   
 POTCAR:    PAW_PBE S 06Sep2000                   
 POTCAR:    PAW_PBE Fe_pv 02Aug2007               

 ----------------------------------------------------------------------------- 
|                                                                             |
|           W    W    AA    RRRRR   N    N  II  N    N   GGGG   !!!           |
|           W    W   A  A   R    R  NN   N  II  NN   N  G    G  !!!           |
|           W    W  A    A  R    R  N N  N  II  N N  N  G       !!!           |
|           W WW W  AAAAAA  RRRRR   N  N N  II  N  N N  G  GGG   !            |
|           WW  WW  A    A  R   R   N   NN  II  N   NN  G    G                |
|           W    W  A    A  R    R  N    N  II  N    N   GGGG   !!!           |
|                                                                             |
|      You have enabled k-point parallelism (KPAR>1).                         |
|      This developmental code was originally  written by Paul Kent at ORNL,  |
|      and carefully double checked in Vienna.                                |
|      GW as well as linear response parallelism added by Martijn Marsman     |
|      and Georg Kresse.                                                      |
|      Carefully verify results versus KPAR=1.                                |
|      Report problems to Paul Kent and Vienna.                               |
|                                                                             |
 ----------------------------------------------------------------------------- 

 POTCAR:    PAW_PBE Li_sv 10Sep2004               
  local pseudopotential read in
  atomic valenz-charges read in
  non local Contribution for L=           0  read in
    real space projection operators read in
  non local Contribution for L=           0  read in
    real space projection operators read in
  non local Contribution for L=           1  read in
    real space projection operators read in
    PAW grid and wavefunctions read in
 
   number of l-projection  operators is LMAX  =           3
   number of lm-projection operators is LMMAX =           5
 
 POTCAR:    PAW_PBE O 08Apr2002                   
  local pseudopotential read in
  partial core-charges read in
  partial kinetic energy density read in
  kinetic energy density of atom read in
  atomic valenz-charges read in
  non local Contribution for L=           0  read in
    real space projection operators read in
  non local Contribution for L=           0  read in
    real space projection operators read in
  non local Contribution for L=           1  read in
    real space projection operators read in
  non local Contribution for L=           1  read in
    real space projection operators read in
    PAW grid and wavefunctions read in
 
   number of l-projection  operators is LMAX  =           4
   number of lm-projection operators is LMMAX =           8
 
 POTCAR:    PAW_PBE S 06Sep2000                   
  local pseudopotential read in
  partial core-charges read in
  partial kinetic energy density read in
  atomic valenz-charges read in
  non local Contribution for L=           0  read in
    real space projection operators read in
  non local Contribution for L=           0  read in
    real space projection operators read in
  non local Contribution for L=           1  read in
    real space projection operators read in
  non local Contribution for L=           1  read in
    real space projection operators read in
    PAW grid and wavefunctions read in
 
   number of l-projection  operators is LMAX  =           4
   number of lm-projection operators is LMMAX =           8
 
 POTCAR:    PAW_PBE Fe_pv 02Aug2007               
  local pseudopotential read in
  partial core-charges read in
  partial kinetic energy density read in
  atomic valenz-charges read in
  non local Contribution for L=           1  read in
    real space projection operators read in
  non local Contribution for L=           1  read in
    real space projection operators read in
  non local Contribution for L=           2  read in
    real space projection operators read in
  non local Contribution for L=           2  read in
    real space projection operators read in
  non local Contribution for L=           0  read in
    real space projection operators read in
  non local Contribution for L=           0  read in
    real space projection operators read in
    PAW grid and wavefunctions read in
 
   number of l-projection  operators is LMAX  =           6
   number of lm-projection operators is LMMAX =          18
 

 ----------------------------------------------------------------------------- 
|                                                                             |
|  ADVICE TO THIS USER RUNNING 'VASP/VAMP'   (HEAR YOUR MASTER'S VOICE ...):  |
|                                                                             |
|      You have a (more or less) 'large supercell' and for larger cells       |
|      it might be more efficient to use real space projection opertators     |
|      So try LREAL= Auto  in the INCAR   file.                               |
|      Mind:          For very  accurate calculation you might also keep the  |
|      reciprocal projection scheme          (i.e. LREAL=.FALSE.)             |
|                                                                             |
 ----------------------------------------------------------------------------- 

  PAW_PBE Li_sv 10Sep2004               :
 energy of atom  1       EATOM= -202.7858
 kinetic energy error for atom=    0.0072 (will be added to EATOM!!)
  PAW_PBE O 08Apr2002                   :
 energy of atom  2       EATOM= -432.3788
 kinetic energy error for atom=    0.0129 (will be added to EATOM!!)
  PAW_PBE S 06Sep2000                   :
 energy of atom  3       EATOM= -276.8230
 kinetic energy error for atom=    0.0008 (will be added to EATOM!!)
  PAW_PBE Fe_pv 02Aug2007               :
 energy of atom  4       EATOM=-2457.4239
 kinetic energy error for atom=    0.0041 (will be added to EATOM!!)
 
 
 POSCAR: # Compound: Li48O24S24Fe24. Old comment:
  positions in direct lattice
  No initial velocities read in
 exchange correlation table for  LEXCH =        8
   RHO(1)=    0.500       N(1)  =     2000
   RHO(2)=  100.500       N(2)  =     4000
 


--------------------------------------------------------------------------------------------------------


 ion  position               nearest neighbor table
   1  0.035  0.363  0.357-  51 1.97  49 1.97  73 2.66
   2  0.369  0.363  0.356-  49 1.97  50 1.97  74 2.65
   3  0.702  0.363  0.356-  50 1.97  51 1.97  75 2.65
   4  0.035  0.863  0.356-  54 1.97  52 1.97  76 2.65
   5  0.369  0.863  0.356-  52 1.97  53 1.97  77 2.65
   6  0.702  0.863  0.356-  53 1.97  54 1.97  78 2.65
   7  0.035  0.363  0.856-  57 1.97  55 1.97  79 2.65
   8  0.369  0.363  0.856-  55 1.97  56 1.97  80 2.65
   9  0.702  0.363  0.856-  56 1.97  57 1.97  81 2.65
  10  0.035  0.863  0.856-  60 1.97  58 1.97  82 2.65
  11  0.369  0.863  0.856-  58 1.97  59 1.97  83 2.65
  12  0.702  0.863  0.856-  59 1.97  60 1.97  84 2.65
  13  0.035  0.113  0.144-  63 1.97  61 1.97  85 2.65
  14  0.369  0.113  0.144-  61 1.97  62 1.97  86 2.65
  15  0.702  0.113  0.144-  62 1.97  63 1.97  87 2.65
  16  0.035  0.613  0.144-  66 1.97  64 1.97  88 2.65
  17  0.369  0.613  0.144-  64 1.97  65 1.97  89 2.65
  18  0.702  0.613  0.144-  65 1.97  66 1.97  90 2.65
  19  0.035  0.113  0.644-  69 1.97  67 1.97  91 2.65
  20  0.369  0.113  0.644-  67 1.97  68 1.97  92 2.65
  21  0.702  0.113  0.644-  68 1.97  69 1.97  93 2.65
  22  0.035  0.613  0.644-  72 1.97  70 1.97  94 2.65
  23  0.369  0.613  0.644-  70 1.97  71 1.97  95 2.65
  24  0.702  0.613  0.644-  71 1.97  72 1.97  96 2.65
  25  0.202  0.219  0.272-  61 1.99  49 2.02  85 2.55  86 2.55
  26  0.535  0.219  0.272-  62 1.99  50 2.02  86 2.55  87 2.55
  27  0.869  0.219  0.272-  63 1.99  51 2.02  87 2.55  85 2.55
  28  0.202  0.719  0.272-  64 1.99  52 2.02  88 2.55  89 2.55
  29  0.535  0.719  0.272-  65 1.99  53 2.02  89 2.55  90 2.55
  30  0.869  0.719  0.272-  66 1.99  54 2.02  90 2.55  88 2.55
  31  0.202  0.219  0.772-  67 1.99  55 2.02  91 2.55  92 2.55
  32  0.535  0.219  0.772-  68 1.99  56 2.02  92 2.55  93 2.55
  33  0.869  0.219  0.772-  69 1.99  57 2.02  93 2.55  91 2.55
  34  0.202  0.719  0.772-  70 1.99  58 2.02  94 2.55  95 2.55
  35  0.535  0.719  0.772-  71 1.99  59 2.02  95 2.55  96 2.55
  36  0.869  0.719  0.772-  72 1.99  60 2.02  96 2.55  94 2.55
  37  0.202  0.469  0.228-  49 1.99  64 2.02  73 2.55  74 2.55
  38  0.535  0.469  0.228-  50 1.99  65 2.02  74 2.55  75 2.55
  39  0.869  0.469  0.228-  51 1.99  66 2.02  75 2.55  73 2.55
  40  0.202  0.969  0.228-  52 1.99  61 2.02  76 2.55  77 2.55
  41  0.535  0.969  0.228-  53 1.99  62 2.02  77 2.55  78 2.55
  42  0.869  0.969  0.228-  54 1.99  63 2.02  78 2.55  76 2.55
  43  0.202  0.469  0.728-  55 1.99  70 2.02  79 2.55  80 2.55
  44  0.535  0.469  0.728-  56 1.99  71 2.02  80 2.55  81 2.55
  45  0.869  0.469  0.728-  57 1.99  72 2.02  81 2.55  79 2.55
  46  0.202  0.969  0.728-  58 1.99  67 2.02  82 2.55  83 2.55
  47  0.535  0.969  0.728-  59 1.99  68 2.02  83 2.55  84 2.55
  48  0.869  0.969  0.728-  60 1.99  69 2.02  84 2.55  82 2.55
  49  0.202  0.368  0.374-   1 1.97   2 1.97  37 1.99 100 2.01  25 2.02 115 2.02
  50  0.535  0.368  0.374-   3 1.97   2 1.97  38 1.99 101 2.01  26 2.02 116 2.02
  51  0.869  0.368  0.374-   1 1.97   3 1.97  39 1.99 102 2.01  27 2.02 117 2.02
  52  0.202  0.868  0.374-   5 1.97   4 1.97  40 1.99  97 2.01  28 2.02 118 2.02
  53  0.535  0.868  0.374-   6 1.97   5 1.97  41 1.99  98 2.01  29 2.02 119 2.02
  54  0.869  0.868  0.374-   4 1.97   6 1.97  42 1.99  99 2.01  30 2.02 120 2.02
  55  0.202  0.368  0.874-   8 1.97   7 1.97  43 1.99 106 2.01  31 2.02 109 2.02
  56  0.535  0.368  0.874-   9 1.97   8 1.97  44 1.99 107 2.01  32 2.02 110 2.02
  57  0.869  0.368  0.874-   7 1.97   9 1.97  45 1.99 108 2.01  33 2.02 111 2.02
  58  0.202  0.868  0.874-  11 1.97  10 1.97  46 1.99 103 2.01  34 2.02 112 2.02
  59  0.535  0.868  0.874-  12 1.97  11 1.97  47 1.99 104 2.01  35 2.02 113 2.02
  60  0.869  0.868  0.874-  10 1.97  12 1.97  48 1.99 105 2.01  36 2.02 114 2.02
  61  0.202  0.118  0.126-  14 1.97  13 1.97  25 1.99 109 2.01  40 2.02 103 2.02
  62  0.535  0.118  0.126-  15 1.97  14 1.97  26 1.99 110 2.01  41 2.02 104 2.02
  63  0.869  0.118  0.126-  13 1.97  15 1.97  27 1.99 111 2.01  42 2.02 105 2.02
  64  0.202  0.618  0.126-  17 1.97  16 1.97  28 1.99 112 2.01  37 2.02 106 2.02
  65  0.535  0.618  0.126-  18 1.97  17 1.97  29 1.99 113 2.01  38 2.02 107 2.02
  66  0.869  0.618  0.126-  16 1.97  18 1.97  30 1.99 114 2.01  39 2.02 108 2.02
  67  0.202  0.118  0.626-  20 1.97  19 1.97  31 1.99 115 2.01  46 2.02  97 2.02
  68  0.535  0.118  0.626-  21 1.97  20 1.97  32 1.99 116 2.01  47 2.02  98 2.02
  69  0.869  0.118  0.626-  19 1.97  21 1.97  33 1.99 117 2.01  48 2.02  99 2.02
  70  0.202  0.618  0.626-  23 1.97  22 1.97  34 1.99 118 2.01  43 2.02 100 2.02
  71  0.535  0.618  0.626-  24 1.97  23 1.97  35 1.99 119 2.01  44 2.02 101 2.02
  72  0.869  0.618  0.626-  22 1.97  24 1.97  36 1.99 120 2.01  45 2.02 102 2.02
  73  0.035  0.370  0.120-  37 2.55  39 2.55 111 2.56 109 2.56   1 2.66
  74  0.369  0.370  0.120-  38 2.55  37 2.55 109 2.56 110 2.56   2 2.65
  75  0.702  0.370  0.120-  39 2.55  38 2.55 110 2.56 111 2.56   3 2.65
  76  0.035  0.870  0.120-  40 2.55  42 2.55 114 2.56 112 2.56   4 2.65
  77  0.369  0.870  0.120-  41 2.55  40 2.55 112 2.56 113 2.56   5 2.65
  78  0.702  0.870  0.120-  42 2.55  41 2.55 113 2.56 114 2.56   6 2.65
  79  0.035  0.370  0.620-  43 2.55  45 2.55 117 2.56 115 2.56   7 2.65
  80  0.369  0.370  0.620-  44 2.55  43 2.55 115 2.56 116 2.56   8 2.65
  81  0.702  0.370  0.620-  45 2.55  44 2.55 116 2.56 117 2.56   9 2.65
  82  0.035  0.870  0.620-  46 2.55  48 2.55 120 2.56 118 2.56  10 2.65
  83  0.369  0.870  0.620-  47 2.55  46 2.55 118 2.56 119 2.56  11 2.65
  84  0.702  0.870  0.620-  48 2.55  47 2.55 119 2.56 120 2.56  12 2.65
  85  0.035  0.120  0.380-  25 2.55  27 2.55  99 2.56  97 2.56  13 2.65
  86  0.369  0.120  0.380-  26 2.55  25 2.55  97 2.56  98 2.56  14 2.65
  87  0.702  0.120  0.380-  27 2.55  26 2.55  98 2.56  99 2.56  15 2.65
  88  0.035  0.620  0.380-  28 2.55  30 2.55 102 2.56 100 2.56  16 2.65
  89  0.369  0.620  0.380-  29 2.55  28 2.55 100 2.56 101 2.56  17 2.65
  90  0.702  0.620  0.380-  30 2.55  29 2.55 101 2.56 102 2.56  18 2.65
  91  0.035  0.120  0.880-  31 2.55  33 2.55 105 2.56 103 2.56  19 2.65
  92  0.369  0.120  0.880-  32 2.55  31 2.55 103 2.56 104 2.56  20 2.65
  93  0.702  0.120  0.880-  33 2.55  32 2.55 104 2.56 105 2.56  21 2.65
  94  0.035  0.620  0.880-  34 2.55  36 2.55 108 2.56 106 2.56  22 2.65
  95  0.369  0.620  0.880-  35 2.55  34 2.55 106 2.56 107 2.56  23 2.65
  96  0.702  0.620  0.880-  36 2.55  35 2.55 107 2.56 108 2.56  24 2.65
  97  0.202  0.012  0.480-  52 2.01  67 2.02  86 2.56  85 2.56
  98  0.535  0.012  0.480-  53 2.01  68 2.02  87 2.56  86 2.56
  99  0.869  0.012  0.480-  54 2.01  69 2.02  85 2.56  87 2.56
 100  0.202  0.512  0.480-  49 2.01  70 2.02  89 2.56  88 2.56
 101  0.535  0.512  0.480-  50 2.01  71 2.02  90 2.56  89 2.56
 102  0.869  0.512  0.480-  51 2.01  72 2.02  88 2.56  90 2.56
 103  0.202  0.012  0.980-  58 2.01  61 2.02  92 2.56  91 2.56
 104  0.535  0.012  0.980-  59 2.01  62 2.02  93 2.56  92 2.56
 105  0.869  0.012  0.980-  60 2.01  63 2.02  91 2.56  93 2.56
 106  0.202  0.512  0.980-  55 2.01  64 2.02  95 2.56  94 2.56
 107  0.535  0.512  0.980-  56 2.01  65 2.02  96 2.56  95 2.56
 108  0.869  0.512  0.980-  57 2.01  66 2.02  94 2.56  96 2.56
 109  0.202  0.262  0.020-  61 2.01  55 2.02  74 2.56  73 2.56
 110  0.535  0.262  0.020-  62 2.01  56 2.02  75 2.56  74 2.56
 111  0.869  0.262  0.020-  63 2.01  57 2.02  73 2.56  75 2.56
 112  0.202  0.762  0.020-  64 2.01  58 2.02  77 2.56  76 2.56
 113  0.535  0.762  0.020-  65 2.01  59 2.02  78 2.56  77 2.56
 114  0.869  0.762  0.020-  66 2.01  60 2.02  76 2.56  78 2.56
 115  0.202  0.262  0.520-  67 2.01  49 2.02  80 2.56  79 2.56
 116  0.535  0.262  0.520-  68 2.01  50 2.02  81 2.56  80 2.56
 117  0.869  0.262  0.520-  69 2.01  51 2.02  79 2.56  81 2.56
 118  0.202  0.762  0.520-  70 2.01  52 2.02  83 2.56  82 2.56
 119  0.535  0.762  0.520-  71 2.01  53 2.02  84 2.56  83 2.56
 120  0.869  0.762  0.520-  72 2.01  54 2.02  82 2.56  84 2.56
 

IMPORTANT INFORMATION: All symmetrisations will be switched off!
NOSYMM: (Re-)initialisation of all symmetry stuff for point group C_1.

 
 
 KPOINTS: # No comment                            

Automatic generation of k-mesh.
Space group operators:
 irot       det(A)        alpha          n_x          n_y          n_z        tau_x        tau_y        tau_z
    1     1.000000     0.000000     1.000000     0.000000     0.000000     0.000000     0.000000     0.000000
 
 Subroutine IBZKPT returns following result:
 ===========================================
 
 Found     14 irreducible k-points:
 
 Following reciprocal coordinates:
            Coordinates               Weight
  0.000000  0.000000  0.000000      1.000000
  0.333333  0.000000  0.000000      2.000000
  0.000000  0.333333  0.000000      2.000000
  0.333333  0.333333  0.000000      2.000000
 -0.333333  0.333333  0.000000      2.000000
  0.000000  0.000000  0.333333      2.000000
  0.333333  0.000000  0.333333      2.000000
 -0.333333  0.000000  0.333333      2.000000
  0.000000  0.333333  0.333333      2.000000
  0.333333  0.333333  0.333333      2.000000
 -0.333333  0.333333  0.333333      2.000000
 -0.000000 -0.333333  0.333333      2.000000
  0.333333 -0.333333  0.333333      2.000000
 -0.333333 -0.333333  0.333333      2.000000
 
 Following cartesian coordinates:
            Coordinates               Weight
  0.000000  0.000000  0.000000      1.000000
  0.028403 -0.000139  0.000000      2.000000
  0.000145  0.029713  0.000000      2.000000
  0.028548  0.029574  0.000000      2.000000
 -0.028257  0.029851  0.000000      2.000000
  0.000000  0.000000  0.029774      2.000000
  0.028403 -0.000139  0.029774      2.000000
 -0.028403  0.000139  0.029774      2.000000
  0.000145  0.029713  0.029774      2.000000
  0.028548  0.029574  0.029774      2.000000
 -0.028257  0.029851  0.029774      2.000000
 -0.000145 -0.029713  0.029774      2.000000
  0.028257 -0.029851  0.029774      2.000000
 -0.028548 -0.029574  0.029774      2.000000
 


--------------------------------------------------------------------------------------------------------




 Dimension of arrays:
   k-points           NKPTS =     14   k-points in BZ     NKDIM =     14   number of bands    NBANDS=    552
   number of dos      NEDOS =    301   number of ions     NIONS =    120
   non local maximal  LDIM  =      6   non local SUM 2l+1 LMDIM =     18
   total plane-waves  NPLWV = 903168
   max r-space proj   IRMAX =      1   max aug-charges    IRDMAX= 154614
   dimension x,y,z NGX =    98 NGY =   96 NGZ =   96
   dimension x,y,z NGXF=   196 NGYF=  192 NGZF=  192
   support grid    NGXF=   392 NGYF=  384 NGZF=  384
   ions per type =              48  24  24  24
   NGX,Y,Z   is equivalent  to a cutoff of  13.88, 14.23, 14.26 a.u.
   NGXF,Y,Z  is equivalent  to a cutoff of  27.76, 28.45, 28.51 a.u.

 SYSTEM =  unknown system                          
 POSCAR =  # Compound: Li48O24S24Fe24. Old comment:

 Startparameter for this run:
   NWRITE =      1    write-flag & timer
   PREC   = accura    normal or accurate (medium, high low for compatibility)
   ISTART =      0    job   : 0-new  1-cont  2-samecut
   ICHARG =      1    charge: 1-file 2-atom 10-const
   ISPIN  =      2    spin polarized calculation?
   LNONCOLLINEAR =      F non collinear calculations
   LSORBIT =      F    spin-orbit coupling
   INIWAV =      1    electr: 0-lowe 1-rand  2-diag
   LASPH  =      T    aspherical Exc in radial PAW
   METAGGA=      F    non-selfconsistent MetaGGA calc.

 Electronic Relaxation 1
   ENCUT  =  650.0 eV  47.77 Ry    6.91 a.u.  24.40 23.32 23.27*2*pi/ulx,y,z
   ENINI  =  650.0     initial cutoff
   ENAUG  =  628.9 eV  augmentation charge cutoff
   NELM   =    200;   NELMIN=  8; NELMDL=  0     # of ELM steps 
   EDIFF  = 0.1E-05   stopping-criterion for ELM
   LREAL  =      F    real-space projection
   NLSPLINE    = F    spline interpolate recip. space projectors
   LCOMPAT=      F    compatible to vasp.4.4
   GGA_COMPAT  = T    GGA compatible to vasp.4.4-vasp.4.6
   LMAXPAW     = -100 max onsite density
   LMAXMIX     =    4 max onsite mixed and CHGCAR
   VOSKOWN=      0    Vosko Wilk Nusair interpolation
   ROPT   =    0.00000   0.00000   0.00000   0.00000
 Ionic relaxation
   EDIFFG = 0.1E-04   stopping-criterion for IOM
   NSW    =      0    number of steps for IOM
   NBLOCK =      1;   KBLOCK =      1    inner block; outer block 
   IBRION =     -1    ionic relax: 0-MD 1-quasi-New 2-CG
   NFREE  =      0    steps in history (QN), initial steepest desc. (CG)
   ISIF   =      3    stress and relaxation
   IWAVPR =     10    prediction:  0-non 1-charg 2-wave 3-comb
   ISYM   =      0    0-nonsym 1-usesym 2-fastsym
   LCORR  =      T    Harris-Foulkes like correction to forces

   POTIM  = 0.5000    time-step for ionic-motion
   TEIN   =    0.0    initial temperature
   TEBEG  =    0.0;   TEEND  =   0.0 temperature during run
   SMASS  =  -3.00    Nose mass-parameter (am)
   estimated Nose-frequenzy (Omega)   =  0.10E-29 period in steps =****** mass=  -0.315E-26a.u.
   SCALEE = 1.0000    scale energy and forces
   NPACO  =    256;   APACO  = 16.0  distance and # of slots for P.C.
   PSTRESS=    0.0 pullay stress

  Mass of Ions in am
   POMASS =   7.01 16.00 32.07 55.85
  Ionic Valenz
   ZVAL   =   3.00  6.00  6.00 14.00
  Atomic Wigner-Seitz radii
   RWIGS  =  -1.00 -1.00 -1.00 -1.00
  virtual crystal weights 
   VCA    =   1.00  1.00  1.00  1.00
   NELECT =     768.0000    total number of electrons
   NUPDOWN=      -1.0000    fix difference up-down

 DOS related values:
   EMIN   =  10.00;   EMAX   =-10.00  energy-range for DOS
   EFERMI =   0.00
   ISMEAR =     0;   SIGMA  =   0.05  broadening in eV -4-tet -1-fermi 0-gaus

 Electronic relaxation 2 (details)
   IALGO  =     38    algorithm
   LDIAG  =      T    sub-space diagonalisation (order eigenvalues)
   LSUBROT=      F    optimize rotation matrix (better conditioning)
   TURBO    =      0    0=normal 1=particle mesh
   IRESTART =      0    0=no restart 2=restart with 2 vectors
   NREBOOT  =      0    no. of reboots
   NMIN     =      0    reboot dimension
   EREF     =   0.00    reference energy to select bands
   IMIX   =      4    mixing-type and parameters
     AMIX     =   0.40;   BMIX     =  1.00
     AMIX_MAG =   1.60;   BMIX_MAG =  1.00
     AMIN     =   0.10
     WC   =   100.;   INIMIX=   1;  MIXPRE=   1;  MAXMIX= -45

 Intra band minimization:
   WEIMIN = 0.0000     energy-eigenvalue tresh-hold
   EBREAK =  0.45E-09  absolut break condition
   DEPER  =   0.30     relativ break condition  

   TIME   =   0.40     timestep for ELM

  volume/ion in A,a.u.               =      12.28        82.89
  Fermi-wavevector in a.u.,A,eV,Ry     =   1.317335  2.489402 23.611165  1.735372
  Thomas-Fermi vector in A             =   2.447383
 
 Write flags
   LWAVE        =      F    write WAVECAR
   LDOWNSAMPLE  =      F    k-point downsampling of WAVECAR
   LCHARG       =      T    write CHGCAR
   LVTOT        =      F    write LOCPOT, total local potential
   LVHAR        =      F    write LOCPOT, Hartree potential only
   LELF         =      F    write electronic localiz. function (ELF)
   LORBIT       =      0    0 simple, 1 ext, 2 COOP (PROOUT), +10 PAW based schemes


 Dipole corrections
   LMONO  =      F    monopole corrections only (constant potential shift)
   LDIPOL =      F    correct potential (dipole corrections)
   IDIPOL =      0    1-x, 2-y, 3-z, 4-all directions 
   EPSILON=  1.0000000 bulk dielectric constant

 LDA+U is selected, type is set to LDAUTYPE =  2
   angular momentum for each species LDAUL =    -1   -1   -1    2
   U (eV)           for each species LDAUU =   0.0  0.0  0.0  4.0
   J (eV)           for each species LDAUJ =   0.0  0.0  0.0  0.0
 Exchange correlation treatment:
   GGA     =    PE    GGA type
   LEXCH   =     8    internal setting for exchange type
   VOSKOWN=      0    Vosko Wilk Nusair interpolation
   LHFCALC =     F    Hartree Fock is set to
   LHFONE  =     F    Hartree Fock one center treatment
   AEXX    =    0.0000 exact exchange contribution

 Linear response parameters
   LEPSILON=     F    determine dielectric tensor
   LRPA    =     F    only Hartree local field effects (RPA)
   LNABLA  =     F    use nabla operator in PAW spheres
   LVEL    =     F    velocity operator in full k-point grid
   LINTERFAST=   F  fast interpolation
   KINTER  =     0    interpolate to denser k-point grid
   CSHIFT  =0.1000    complex shift for real part using Kramers Kronig
   OMEGAMAX=  -1.0    maximum frequency
   DEG_THRESHOLD= 0.2000000E-02 threshold for treating states as degnerate
   RTIME   =   -0.100 relaxation time in fs
  (WPLASMAI=    0.000 imaginary part of plasma frequency in eV, 0.658/RTIME)
   DFIELD  = 0.0000000 0.0000000 0.0000000 field for delta impulse in time
 
 Orbital magnetization related:
   ORBITALMAG=     F  switch on orbital magnetization
   LCHIMAG   =     F  perturbation theory with respect to B field
   DQ        =  0.001000  dq finite difference perturbation B field
   LLRAUG    =     F  two centre corrections for induced B field



--------------------------------------------------------------------------------------------------------


 Static calculation
 charge density and potential will be updated during run
 spin polarized calculation
 Variant of blocked Davidson
 Davidson routine will perform the subspace rotation
 perform sub-space diagonalisation
    after iterative eigenvector-optimisation
 modified Broyden-mixing scheme, WC =      100.0
 initial mixing is a Kerker type mixing with AMIX =  0.4000 and BMIX =      1.0000
 Hartree-type preconditioning will be used
 using additional bands          168
 reciprocal scheme for non local part
 use partial core corrections
 calculate Harris-corrections to forces 
   (improved forces if not selfconsistent)
 use gradient corrections 
 use of overlap-Matrix (Vanderbilt PP)
 Gauss-broadening in eV      SIGMA  =   0.05


--------------------------------------------------------------------------------------------------------


  energy-cutoff  :      650.00
  volume of cell :     1474.00
      direct lattice vectors                 reciprocal lattice vectors
    11.735727240 -0.057442860  0.000000000     0.085207850 -0.000416288  0.000000000
     0.054807880 11.218334900  0.000000000     0.000436302  0.089137657  0.000000000
     0.000000000  0.000000000 11.195620100     0.000000000  0.000000000  0.089320644

  length of vectors
    11.735867822 11.218468783 11.195620100     0.085208867  0.089138725  0.089320644


 
 k-points in units of 2pi/SCALE and weight: # No comment                            
   0.00000000  0.00000000  0.00000000       0.037
   0.02840262 -0.00013876  0.00000000       0.074
   0.00014543  0.02971255  0.00000000       0.074
   0.02854805  0.02957379  0.00000000       0.074
  -0.02825718  0.02985132  0.00000000       0.074
   0.00000000  0.00000000  0.02977355       0.074
   0.02840262 -0.00013876  0.02977355       0.074
  -0.02840262  0.00013876  0.02977355       0.074
   0.00014543  0.02971255  0.02977355       0.074
   0.02854805  0.02957379  0.02977355       0.074
  -0.02825718  0.02985132  0.02977355       0.074
  -0.00014543 -0.02971255  0.02977355       0.074
   0.02825718 -0.02985132  0.02977355       0.074
  -0.02854805 -0.02957379  0.02977355       0.074
 
 k-points in reciprocal lattice and weights: # No comment                            
   0.00000000  0.00000000  0.00000000       0.037
   0.33333333  0.00000000  0.00000000       0.074
   0.00000000  0.33333333  0.00000000       0.074
   0.33333333  0.33333333  0.00000000       0.074
  -0.33333333  0.33333333  0.00000000       0.074
   0.00000000  0.00000000  0.33333333       0.074
   0.33333333  0.00000000  0.33333333       0.074
  -0.33333333  0.00000000  0.33333333       0.074
   0.00000000  0.33333333  0.33333333       0.074
   0.33333333  0.33333333  0.33333333       0.074
  -0.33333333  0.33333333  0.33333333       0.074
  -0.00000000 -0.33333333  0.33333333       0.074
   0.33333333 -0.33333333  0.33333333       0.074
  -0.33333333 -0.33333333  0.33333333       0.074
 
 position of ions in fractional coordinates (direct lattice) 
   0.03541706  0.36277547  0.35737469
   0.36875039  0.36277547  0.35648149
   0.70208372  0.36277547  0.35648149
   0.03541706  0.86277547  0.35648149
   0.36875039  0.86277547  0.35648149
   0.70208372  0.86277547  0.35648149
   0.03541706  0.36277547  0.85648149
   0.36875039  0.36277547  0.85648149
   0.70208372  0.36277547  0.85648149
   0.03541706  0.86277547  0.85648149
   0.36875039  0.86277547  0.85648149
   0.70208372  0.86277547  0.85648149
   0.03541706  0.11277547  0.14351851
   0.36875039  0.11277547  0.14351851
   0.70208372  0.11277547  0.14351851
   0.03541706  0.61277547  0.14351851
   0.36875039  0.61277547  0.14351851
   0.70208372  0.61277547  0.14351851
   0.03541706  0.11277547  0.64351851
   0.36875039  0.11277547  0.64351851
   0.70208372  0.11277547  0.64351851
   0.03541706  0.61277547  0.64351851
   0.36875039  0.61277547  0.64351851
   0.70208372  0.61277547  0.64351851
   0.20209458  0.21898060  0.27246215
   0.53542792  0.21898060  0.27246215
   0.86876125  0.21898060  0.27246215
   0.20209458  0.71898060  0.27246215
   0.53542792  0.71898060  0.27246215
   0.86876125  0.71898060  0.27246215
   0.20209458  0.21898060  0.77246215
   0.53542792  0.21898060  0.77246215
   0.86876125  0.21898060  0.77246215
   0.20209458  0.71898060  0.77246215
   0.53542792  0.71898060  0.77246215
   0.86876125  0.71898060  0.77246215
   0.20209458  0.46898060  0.22753785
   0.53542792  0.46898060  0.22753785
   0.86876125  0.46898060  0.22753785
   0.20209458  0.96898060  0.22753785
   0.53542792  0.96898060  0.22753785
   0.86876125  0.96898060  0.22753785
   0.20209458  0.46898060  0.72753785
   0.53542792  0.46898060  0.72753785
   0.86876125  0.46898060  0.72753785
   0.20209458  0.96898060  0.72753785
   0.53542792  0.96898060  0.72753785
   0.86876125  0.96898060  0.72753785
   0.20209064  0.36769237  0.37376509
   0.53542398  0.36769237  0.37376509
   0.86875731  0.36769237  0.37376509
   0.20209064  0.86769237  0.37376509
   0.53542398  0.86769237  0.37376509
   0.86875731  0.86769237  0.37376509
   0.20209064  0.36769237  0.87376509
   0.53542398  0.36769237  0.87376509
   0.86875731  0.36769237  0.87376509
   0.20209064  0.86769237  0.87376509
   0.53542398  0.86769237  0.87376509
   0.86875731  0.86769237  0.87376509
   0.20209064  0.11769237  0.12623491
   0.53542398  0.11769237  0.12623491
   0.86875731  0.11769237  0.12623491
   0.20209064  0.61769237  0.12623491
   0.53542398  0.61769237  0.12623491
   0.86875731  0.61769237  0.12623491
   0.20209064  0.11769237  0.62623491
   0.53542398  0.11769237  0.62623491
   0.86875731  0.11769237  0.62623491
   0.20209064  0.61769237  0.62623491
   0.53542398  0.61769237  0.62623491
   0.86875731  0.61769237  0.62623491
   0.03542751  0.37011947  0.12029448
   0.36876084  0.37011947  0.12029448
   0.70209418  0.37011947  0.12029448
   0.03542751  0.87011947  0.12029448
   0.36876084  0.87011947  0.12029448
   0.70209418  0.87011947  0.12029448
   0.03542751  0.37011947  0.62029448
   0.36876084  0.37011947  0.62029448
   0.70209418  0.37011947  0.62029448
   0.03542751  0.87011947  0.62029448
   0.36876084  0.87011947  0.62029448
   0.70209418  0.87011947  0.62029448
   0.03542751  0.12011947  0.37970552
   0.36876084  0.12011947  0.37970552
   0.70209418  0.12011947  0.37970552
   0.03542751  0.62011947  0.37970552
   0.36876084  0.62011947  0.37970552
   0.70209418  0.62011947  0.37970552
   0.03542751  0.12011947  0.87970552
   0.36876084  0.12011947  0.87970552
   0.70209418  0.12011947  0.87970552
   0.03542751  0.62011947  0.87970552
   0.36876084  0.62011947  0.87970552
   0.70209418  0.62011947  0.87970552
   0.20209387  0.01225309  0.48003463
   0.53542720  0.01225309  0.48003463
   0.86876054  0.01225309  0.48003463
   0.20209387  0.51225309  0.48003463
   0.53542720  0.51225309  0.48003463
   0.86876054  0.51225309  0.48003463
   0.20209387  0.01225309  0.98003463
   0.53542720  0.01225309  0.98003463
   0.86876054  0.01225309  0.98003463
   0.20209387  0.51225309  0.98003463
   0.53542720  0.51225309  0.98003463
   0.86876054  0.51225309  0.98003463
   0.20209387  0.26225309  0.01996537
   0.53542720  0.26225309  0.01996537
   0.86876054  0.26225309  0.01996537
   0.20209387  0.76225309  0.01996537
   0.53542720  0.76225309  0.01996537
   0.86876054  0.76225309  0.01996537
   0.20209387  0.26225309  0.51996537
   0.53542720  0.26225309  0.51996537
   0.86876054  0.26225309  0.51996537
   0.20209387  0.76225309  0.51996537
   0.53542720  0.76225309  0.51996537
   0.86876054  0.76225309  0.51996537
 
 position of ions in cartesian coordinates  (Angst):
   0.43552787  4.06770226  4.00103128
   4.34743695  4.04855464  3.99103128
   8.25934603  4.02940702  3.99103128
   0.46293181  9.67686971  3.99103128
   4.37484089  9.65772209  3.99103128
   8.28674997  9.63857447  3.99103128
   0.43552787  4.06770226  9.58884133
   4.34743695  4.04855464  9.58884133
   8.25934603  4.02940702  9.58884133
   0.46293181  9.67686971  9.58884133
   4.37484089  9.65772209  9.58884133
   8.28674997  9.63857447  9.58884133
   0.42182590  1.26311853  1.60677877
   4.33373498  1.24397091  1.60677877
   8.24564406  1.22482329  1.60677877
   0.44922984  6.87228598  1.60677877
   4.36113892  6.85313836  1.60677877
   8.27304800  6.83399074  1.60677877
   0.42182590  1.26311853  7.20458882
   4.33373498  1.24397091  7.20458882
   8.24564406  1.22482329  7.20458882
   0.44922984  6.87228598  7.20458882
   4.36113892  6.85313836  7.20458882
   8.27304800  6.83399074  7.20458882
   2.38372877  2.44498882  3.05038272
   6.29563785  2.42584120  3.05038272
  10.20754693  2.40669358  3.05038272
   2.41113271  8.05415627  3.05038272
   6.32304179  8.03500865  3.05038272
  10.23495087  8.01586103  3.05038272
   2.38372877  2.44498882  8.64819277
   6.29563785  2.42584120  8.64819277
  10.20754693  2.40669358  8.64819277
   2.41113271  8.05415627  8.64819277
   6.32304179  8.03500865  8.64819277
  10.23495087  8.01586103  8.64819277
   2.39743074  5.24957254  2.54742733
   6.30933982  5.23042492  2.54742733
  10.22124890  5.21127730  2.54742733
   2.42483468 10.85873999  2.54742733
   6.33674376 10.83959237  2.54742733
  10.24865284 10.82044475  2.54742733
   2.39743074  5.24957254  8.14523738
   6.30933982  5.23042492  8.14523738
  10.22124890  5.21127730  8.14523738
   2.42483468 10.85873999  8.14523738
   6.33674376 10.83959237  8.14523738
  10.24865284 10.82044475  8.14523738
   2.39183311  4.11328754  4.18453195
   6.30374219  4.09413992  4.18453195
  10.21565127  4.07499230  4.18453195
   2.41923705  9.72245499  4.18453195
   6.33114613  9.70330737  4.18453195
  10.24305521  9.68415975  4.18453195
   2.39183311  4.11328754  9.78234200
   6.30374219  4.09413992  9.78234200
  10.21565127  4.07499230  9.78234200
   2.41923705  9.72245499  9.78234200
   6.33114613  9.70330737  9.78234200
  10.24305521  9.68415975  9.78234200
   2.37813114  1.30870381  1.41327810
   6.29004022  1.28955619  1.41327810
  10.20194930  1.27040857  1.41327810
   2.40553508  6.91787126  1.41327810
   6.31744416  6.89872364  1.41327810
  10.22935324  6.87957602  1.41327810
   2.37813114  1.30870381  7.01108815
   6.29004022  1.28955619  7.01108815
  10.20194930  1.27040857  7.01108815
   2.40553508  6.91787126  7.01108815
   6.31744416  6.89872364  7.01108815
  10.22935324  6.87957602  7.01108815
   0.43605306  4.15008905  1.34677124
   4.34796214  4.13094143  1.34677124
   8.25987122  4.11179381  1.34677124
   0.46345700  9.75925650  1.34677124
   4.37536608  9.74010888  1.34677124
   8.28727516  9.72096126  1.34677124
   0.43605306  4.15008905  6.94458129
   4.34796214  4.13094143  6.94458129
   8.25987122  4.11179381  6.94458129
   0.46345700  9.75925650  6.94458129
   4.37536608  9.74010888  6.94458129
   8.28727516  9.72096126  6.94458129
   0.42235109  1.34550533  4.25103881
   4.33426017  1.32635771  4.25103881
   8.24616925  1.30721009  4.25103881
   0.44975503  6.95467278  4.25103881
   4.36166411  6.93552516  4.25103881
   8.27357319  6.91637754  4.25103881
   0.42235109  1.34550533  9.84884886
   4.33426017  1.32635771  9.84884886
   8.24616925  1.30721009  9.84884886
   0.44975503  6.95467278  9.84884886
   4.36166411  6.93552516  9.84884886
   8.27357319  6.91637754  9.84884886
   2.37239010  0.12585042  5.37428530
   6.28429918  0.10670280  5.37428530
  10.19620826  0.08755518  5.37428530
   2.39979404  5.73501787  5.37428530
   6.31170312  5.71587025  5.37428530
  10.22361220  5.69672263  5.37428530
   2.37239010  0.12585042 10.97209535
   6.28429918  0.10670280 10.97209535
  10.19620826  0.08755518 10.97209535
   2.39979404  5.73501787 10.97209535
   6.31170312  5.71587025 10.97209535
  10.22361220  5.69672263 10.97209535
   2.38609207  2.93043414  0.22352475
   6.29800115  2.91128652  0.22352475
  10.20991023  2.89213890  0.22352475
   2.41349601  8.53960159  0.22352475
   6.32540509  8.52045397  0.22352475
  10.23731417  8.50130635  0.22352475
   2.38609207  2.93043414  5.82133480
   6.29800115  2.91128652  5.82133480
  10.20991023  2.89213890  5.82133480
   2.41349601  8.53960159  5.82133480
   6.32540509  8.52045397  5.82133480
  10.23731417  8.50130635  5.82133480
 


--------------------------------------------------------------------------------------------------------


 k-point  1 :   0.0000 0.0000 0.0000  plane waves:   55469
 k-point  2 :   0.3333 0.0000 0.0000  plane waves:   55443
 k-point  3 :   0.0000 0.3333 0.0000  plane waves:   55474
 k-point  4 :   0.3333 0.3333 0.0000  plane waves:   55456
 k-point  5 :  -0.3333 0.3333 0.0000  plane waves:   55456
 k-point  6 :   0.0000 0.0000 0.3333  plane waves:   55522
 k-point  7 :   0.3333 0.0000 0.3333  plane waves:   55468
 k-point  8 :  -0.3333 0.0000 0.3333  plane waves:   55468
 k-point  9 :   0.0000 0.3333 0.3333  plane waves:   55433
 k-point 10 :   0.3333 0.3333 0.3333  plane waves:   55444
 k-point 11 :  -0.3333 0.3333 0.3333  plane waves:   55444
 k-point 12 :  -0.0000-0.3333 0.3333  plane waves:   55433
 k-point 13 :   0.3333-0.3333 0.3333  plane waves:   55444
 k-point 14 :  -0.3333-0.3333 0.3333  plane waves:   55444

 maximum and minimum number of plane-waves per node :      9314     9185

 maximum number of plane-waves:     55522
 maximum index in each direction: 
   IXMAX=   24   IYMAX=   23   IZMAX=   23
   IXMIN=  -24   IYMIN=  -23   IZMIN=  -23


 parallel 3D FFT for wavefunctions:
    minimum data exchange during FFTs selected (reduces bandwidth)
 parallel 3D FFT for charge:
    minimum data exchange during FFTs selected (reduces bandwidth)


 total amount of memory used by VASP MPI-rank0   801761. kBytes
=======================================================================

   base      :      30000. kBytes
   nonl-proj :      92491. kBytes
   fftplans  :      50318. kBytes
   grid      :      44712. kBytes
   one-center:        622. kBytes
   wavefun   :     583618. kBytes
 
     INWAV:  cpu time    0.0000: real time    0.0000
 Broyden mixing: mesh for mixing (old mesh)
   NGX = 49   NGY = 47   NGZ = 47
  (NGX  =196   NGY  =192   NGZ  =192)
  gives a total of 108241 points

 initial charge density was supplied:
 number of electron     768.0000015 magnetization      96.0009074
 keeping initial charge density in first step


--------------------------------------------------------------------------------------------------------


 Maximum index for augmentation-charges         7847 (set IRDMAX)


--------------------------------------------------------------------------------------------------------


 First call to EWALD:  gamma=   0.156
 Maximum number of real-space cells 3x 3x 3
 Maximum number of reciprocal cells 3x 3x 3

    FEWALD:  cpu time    0.0570: real time    0.0630


--------------------------------------- Iteration      1(   1)  ---------------------------------------


    POTLOK:  cpu time    0.4970: real time    0.6943
    SETDIJ:  cpu time    1.2894: real time    1.3173
     EDDAV:  cpu time  218.1242: real time  220.3788
       DOS:  cpu time    0.0056: real time    0.0059
    --------------------------------------------
      LOOP:  cpu time  219.9163: real time  222.3964

 eigenvalue-minimisations  : 32400
 total energy-change (2. order) : 0.1004338E+05  (-0.4138231E+05)
 number of electron     768.0000015 magnetization      96.0009074
 augmentation part      768.0000015 magnetization      96.0009074

 Free energy of the ion-electron system (eV)
  ---------------------------------------------------
  alpha Z        PSCENC =      1915.67052055
  Ewald energy   TEWEN  =    -48531.53669905
  -Hartree energ DENC   =    -28983.94260974
  -exchange      EXHF   =         0.00000000
  -V(xc)+E(xc)   XCENC  =      3297.26653885
  PAW double counting   =     81710.32686745   -84426.12035439
  entropy T*S    EENTRO =        -0.01834886
  eigenvalues    EBANDS =      -670.23319946
  atomic energy  EATOM  =     85731.96378919
  Solvation  Ediel_sol  =         0.00000000
  ---------------------------------------------------
  free energy    TOTEN  =     10043.37650454 eV

  energy without entropy =    10043.39485341  energy(sigma->0) =    10043.38567898


--------------------------------------------------------------------------------------------------------




--------------------------------------- Iteration      1(   2)  ---------------------------------------


     EDDAV:  cpu time  212.1864: real time  214.5177
       DOS:  cpu time    0.0052: real time    0.0054
    --------------------------------------------
      LOOP:  cpu time  212.1916: real time  214.5231

 eigenvalue-minimisations  : 30912
 total energy-change (2. order) :-0.9006330E+04  (-0.8363442E+04)
 number of electron     768.0000015 magnetization      96.0009074
 augmentation part      768.0000015 magnetization      96.0009074

 Free energy of the ion-electron system (eV)
  ---------------------------------------------------
  alpha Z        PSCENC =      1915.67052055
  Ewald energy   TEWEN  =    -48531.53669905
  -Hartree energ DENC   =    -28983.94260974
  -exchange      EXHF   =         0.00000000
  -V(xc)+E(xc)   XCENC  =      3297.26653885
  PAW double counting   =     81710.32686745   -84426.12035439
  entropy T*S    EENTRO =        -0.05223552
  eigenvalues    EBANDS =     -9676.52942432
  atomic energy  EATOM  =     85731.96378919
  Solvation  Ediel_sol  =         0.00000000
  ---------------------------------------------------
  free energy    TOTEN  =      1037.04639303 eV

  energy without entropy =     1037.09862854  energy(sigma->0) =     1037.07251079


--------------------------------------------------------------------------------------------------------




--------------------------------------- Iteration      1(   3)  ---------------------------------------


     EDDAV:  cpu time  229.2596: real time  232.0180
       DOS:  cpu time    0.0022: real time    0.0022
    --------------------------------------------
      LOOP:  cpu time  229.2617: real time  232.0202

 eigenvalue-minimisations  : 34712
 total energy-change (2. order) :-0.1436949E+04  (-0.1296269E+04)
 number of electron     768.0000015 magnetization      96.0009074
 augmentation part      768.0000015 magnetization      96.0009074

 Free energy of the ion-electron system (eV)
  ---------------------------------------------------
  alpha Z        PSCENC =      1915.67052055
  Ewald energy   TEWEN  =    -48531.53669905
  -Hartree energ DENC   =    -28983.94260974
  -exchange      EXHF   =         0.00000000
  -V(xc)+E(xc)   XCENC  =      3297.26653885
  PAW double counting   =     81710.32686745   -84426.12035439
  entropy T*S    EENTRO =        -0.00000000
  eigenvalues    EBANDS =    -11113.53086085
  atomic energy  EATOM  =     85731.96378919
  Solvation  Ediel_sol  =         0.00000000
  ---------------------------------------------------
  free energy    TOTEN  =      -399.90280798 eV

  energy without entropy =     -399.90280798  energy(sigma->0) =     -399.90280798


--------------------------------------------------------------------------------------------------------




--------------------------------------- Iteration      1(   4)  ---------------------------------------


     EDDAV:  cpu time  261.1969: real time  264.1825
       DOS:  cpu time    0.0021: real time    0.0021
    --------------------------------------------
      LOOP:  cpu time  261.1990: real time  264.1847

 eigenvalue-minimisations  : 41064
 total energy-change (2. order) :-0.1903991E+03  (-0.1882442E+03)
 number of electron     768.0000015 magnetization      96.0009074
 augmentation part      768.0000015 magnetization      96.0009074

 Free energy of the ion-electron system (eV)
  ---------------------------------------------------
  alpha Z        PSCENC =      1915.67052055
  Ewald energy   TEWEN  =    -48531.53669905
  -Hartree energ DENC   =    -28983.94260974
  -exchange      EXHF   =         0.00000000
  -V(xc)+E(xc)   XCENC  =      3297.26653885
  PAW double counting   =     81710.32686745   -84426.12035439
  entropy T*S    EENTRO =        -0.00000000
  eigenvalues    EBANDS =    -11303.92994649
  atomic energy  EATOM  =     85731.96378919
  Solvation  Ediel_sol  =         0.00000000
  ---------------------------------------------------
  free energy    TOTEN  =      -590.30189362 eV

  energy without entropy =     -590.30189362  energy(sigma->0) =     -590.30189362


--------------------------------------------------------------------------------------------------------




--------------------------------------- Iteration      1(   5)  ---------------------------------------


     EDDAV:  cpu time  329.5468: real time  332.4750
       DOS:  cpu time    0.0024: real time    0.0026
    CHARGE:  cpu time    5.5867: real time    5.6571
    MIXING:  cpu time    0.0311: real time    0.0337
    --------------------------------------------
      LOOP:  cpu time  335.1672: real time  338.1685

 eigenvalue-minimisations  : 54392
 total energy-change (2. order) :-0.2514353E+02  (-0.2490623E+02)
 number of electron     768.0000015 magnetization      96.0005841
 augmentation part      246.8407344 magnetization      62.9037405

 Broyden mixing:
  rms(total) = 0.28053E+00    rms(broyden)= 0.28038E+00
  rms(prec ) = 0.28474E+00
  weight for this iteration     100.00

 Free energy of the ion-electron system (eV)
  ---------------------------------------------------
  alpha Z        PSCENC =      1915.67052055
  Ewald energy   TEWEN  =    -48531.53669905
  -Hartree energ DENC   =    -28983.94260974
  -exchange      EXHF   =         0.00000000
  -V(xc)+E(xc)   XCENC  =      3297.26653885
  PAW double counting   =     81710.32686745   -84426.12035439
  entropy T*S    EENTRO =        -0.00000000
  eigenvalues    EBANDS =    -11329.07347227
  atomic energy  EATOM  =     85731.96378919
  Solvation  Ediel_sol  =         0.00000000
  ---------------------------------------------------
  free energy    TOTEN  =      -615.44541940 eV

  energy without entropy =     -615.44541940  energy(sigma->0) =     -615.44541940


--------------------------------------------------------------------------------------------------------




--------------------------------------- Iteration      1(   6)  ---------------------------------------


    POTLOK:  cpu time    0.4928: real time    0.5071
    SETDIJ:  cpu time    1.4628: real time    1.4857
     EDDAV:  cpu time  267.4076: real time  270.1183
       DOS:  cpu time    0.0021: real time    0.0021
    CHARGE:  cpu time    5.5413: real time    5.6248
    MIXING:  cpu time    0.0245: real time    0.0294
    --------------------------------------------
      LOOP:  cpu time  274.9310: real time  277.7676

 eigenvalue-minimisations  : 42312
 total energy-change (2. order) :-0.9415225E+00  (-0.9699148E+00)
 number of electron     768.0000015 magnetization      96.0004371
 augmentation part      245.7270763 magnetization      63.0564170

 Broyden mixing:
  rms(total) = 0.12162E+00    rms(broyden)= 0.12148E+00
  rms(prec ) = 0.12307E+00
  weight for this iteration     100.00

 eigenvalues of (default mixing * dielectric matrix)
  average eigenvalue GAMMA=   0.6636
  0.6636

 Free energy of the ion-electron system (eV)
  ---------------------------------------------------
  alpha Z        PSCENC =      1915.67052055
  Ewald energy   TEWEN  =    -48531.53669905
  -Hartree energ DENC   =    -28977.90858423
  -exchange      EXHF   =         0.00000000
  -V(xc)+E(xc)   XCENC  =      3296.38947070
  PAW double counting   =     81548.62315711   -84260.52759419
  entropy T*S    EENTRO =        -0.00000000
  eigenvalues    EBANDS =    -11339.06100204
  atomic energy  EATOM  =     85731.96378919
  Solvation  Ediel_sol  =         0.00000000
  ---------------------------------------------------
  free energy    TOTEN  =      -616.38694195 eV

  energy without entropy =     -616.38694195  energy(sigma->0) =     -616.38694195


--------------------------------------------------------------------------------------------------------




--------------------------------------- Iteration      1(   7)  ---------------------------------------


    POTLOK:  cpu time    0.4926: real time    0.5101
    SETDIJ:  cpu time    1.3657: real time    1.4656
     EDDAV:  cpu time  304.0369: real time  307.1656
       DOS:  cpu time    0.0025: real time    0.0025
    CHARGE:  cpu time    5.5914: real time    5.5966
    MIXING:  cpu time    0.0170: real time    0.0212
    --------------------------------------------
      LOOP:  cpu time  311.5062: real time  314.7616

 eigenvalue-minimisations  : 49448
 total energy-change (2. order) :-0.4858277E-01  (-0.4804873E-01)
 number of electron     768.0000015 magnetization      96.0003796
 augmentation part      245.5271000 magnetization      63.0153085

 Broyden mixing:
  rms(total) = 0.84123E-01    rms(broyden)= 0.84068E-01
  rms(prec ) = 0.85765E-01
  weight for this iteration     100.00

 eigenvalues of (default mixing * dielectric matrix)
  average eigenvalue GAMMA=   0.5825
  0.5825  0.5825

 Free energy of the ion-electron system (eV)
  ---------------------------------------------------
  alpha Z        PSCENC =      1915.67052055
  Ewald energy   TEWEN  =    -48531.53669905
  -Hartree energ DENC   =    -28979.84965748
  -exchange      EXHF   =         0.00000000
  -V(xc)+E(xc)   XCENC  =      3296.64243964
  PAW double counting   =     81588.41751351   -84301.24472327
  entropy T*S    EENTRO =        -0.00000000
  eigenvalues    EBANDS =    -11336.49870781
  atomic energy  EATOM  =     85731.96378919
  Solvation  Ediel_sol  =         0.00000000
  ---------------------------------------------------
  free energy    TOTEN  =      -616.43552472 eV

  energy without entropy =     -616.43552472  energy(sigma->0) =     -616.43552472


--------------------------------------------------------------------------------------------------------




--------------------------------------- Iteration      1(   8)  ---------------------------------------


    POTLOK:  cpu time    0.4821: real time    0.4848
    SETDIJ:  cpu time    1.4668: real time    1.4678
     EDDAV:  cpu time  292.8080: real time  295.4493
       DOS:  cpu time    0.0029: real time    0.0029
    CHARGE:  cpu time    5.5591: real time    5.5625
    MIXING:  cpu time    0.0211: real time    0.0244
    --------------------------------------------
      LOOP:  cpu time  300.3400: real time  302.9917

 eigenvalue-minimisations  : 47288
 total energy-change (2. order) :-0.1700373E-03  (-0.1762891E-02)
 number of electron     768.0000015 magnetization      96.0003540
 augmentation part      245.4887066 magnetization      63.0141220

 Broyden mixing:
  rms(total) = 0.73041E-01    rms(broyden)= 0.73036E-01
  rms(prec ) = 0.74571E-01
  weight for this iteration     100.00

 eigenvalues of (default mixing * dielectric matrix)
  average eigenvalue GAMMA=   0.5428
  0.6175  0.6175  0.3934

 Free energy of the ion-electron system (eV)
  ---------------------------------------------------
  alpha Z        PSCENC =      1915.67052055
  Ewald energy   TEWEN  =    -48531.53669905
  -Hartree energ DENC   =    -28980.60932637
  -exchange      EXHF   =         0.00000000
  -V(xc)+E(xc)   XCENC  =      3296.74526588
  PAW double counting   =     81609.21609704   -84322.59392588
  entropy T*S    EENTRO =        -0.00000000
  eigenvalues    EBANDS =    -11335.29141611
  atomic energy  EATOM  =     85731.96378919
  Solvation  Ediel_sol  =         0.00000000
  ---------------------------------------------------
  free energy    TOTEN  =      -616.43569475 eV

  energy without entropy =     -616.43569475  energy(sigma->0) =     -616.43569475


--------------------------------------------------------------------------------------------------------




--------------------------------------- Iteration      1(   9)  ---------------------------------------


    POTLOK:  cpu time    0.4805: real time    0.4833
    SETDIJ:  cpu time    1.4072: real time    1.4843
     EDDAV:  cpu time  303.7009: real time  306.4438
       DOS:  cpu time    0.0022: real time    0.0022
    CHARGE:  cpu time    5.6313: real time    5.6495
    MIXING:  cpu time    0.0203: real time    0.0276
    --------------------------------------------
      LOOP:  cpu time  311.2425: real time  314.0908

 eigenvalue-minimisations  : 49200
 total energy-change (2. order) : 0.6305568E-03  (-0.1042833E-03)
 number of electron     768.0000015 magnetization      96.0003582
 augmentation part      245.4937146 magnetization      63.0118503

 Broyden mixing:
  rms(total) = 0.66705E-01    rms(broyden)= 0.66705E-01
  rms(prec ) = 0.68086E-01
  weight for this iteration     100.00

 eigenvalues of (default mixing * dielectric matrix)
  average eigenvalue GAMMA=   0.4489
  0.6090  0.6090  0.3237  0.2537

 Free energy of the ion-electron system (eV)
  ---------------------------------------------------
  alpha Z        PSCENC =      1915.67052055
  Ewald energy   TEWEN  =    -48531.53669905
  -Hartree energ DENC   =    -28980.80573078
  -exchange      EXHF   =         0.00000000
  -V(xc)+E(xc)   XCENC  =      3296.79039863
  PAW double counting   =     81616.55431793   -84330.15085734
  entropy T*S    EENTRO =        -0.00000000
  eigenvalues    EBANDS =    -11334.92080333
  atomic energy  EATOM  =     85731.96378919
  Solvation  Ediel_sol  =         0.00000000
  ---------------------------------------------------
  free energy    TOTEN  =      -616.43506420 eV

  energy without entropy =     -616.43506420  energy(sigma->0) =     -616.43506420


--------------------------------------------------------------------------------------------------------




--------------------------------------- Iteration      1(  10)  ---------------------------------------


    POTLOK:  cpu time    0.4800: real time    0.4880
    SETDIJ:  cpu time    1.4719: real time    1.4779
     EDDAV:  cpu time  298.2998: real time  301.4489
       DOS:  cpu time    0.0028: real time    0.0028
    CHARGE:  cpu time    5.5878: real time    5.5927
    MIXING:  cpu time    0.0206: real time    0.0248
    --------------------------------------------
      LOOP:  cpu time  305.8629: real time  309.0352

 eigenvalue-minimisations  : 48312
 total energy-change (2. order) :-0.8278193E-04  (-0.1014582E-04)
 number of electron     768.0000015 magnetization      96.0003528
 augmentation part      245.4977321 magnetization      63.0116200

 Broyden mixing:
  rms(total) = 0.67353E-01    rms(broyden)= 0.67353E-01
  rms(prec ) = 0.68730E-01
  weight for this iteration     100.00

 eigenvalues of (default mixing * dielectric matrix)
  average eigenvalue GAMMA=   0.5232
  0.6852  0.6852  0.4227  0.4227  0.4005

 Free energy of the ion-electron system (eV)
  ---------------------------------------------------
  alpha Z        PSCENC =      1915.67052055
  Ewald energy   TEWEN  =    -48531.53669905
  -Hartree energ DENC   =    -28980.75621535
  -exchange      EXHF   =         0.00000000
  -V(xc)+E(xc)   XCENC  =      3296.78269085
  PAW double counting   =     81615.39262730   -84328.95420206
  entropy T*S    EENTRO =        -0.00000000
  eigenvalues    EBANDS =    -11334.99765841
  atomic energy  EATOM  =     85731.96378919
  Solvation  Ediel_sol  =         0.00000000
  ---------------------------------------------------
  free energy    TOTEN  =      -616.43514698 eV

  energy without entropy =     -616.43514698  energy(sigma->0) =     -616.43514698


--------------------------------------------------------------------------------------------------------




--------------------------------------- Iteration      1(  11)  ---------------------------------------


    POTLOK:  cpu time    0.4810: real time    0.4828
    SETDIJ:  cpu time    1.4626: real time    1.4753
     EDDAV:  cpu time  205.7498: real time  207.8778
       DOS:  cpu time    0.0026: real time    0.0026
    CHARGE:  cpu time    5.5766: real time    5.6525
    MIXING:  cpu time    0.0267: real time    0.0324
    --------------------------------------------
      LOOP:  cpu time  213.2993: real time  215.5233

 eigenvalue-minimisations  : 30168
 total energy-change (2. order) : 0.8756100E-04  (-0.4180964E-06)
 number of electron     768.0000015 magnetization      96.0003611
 augmentation part      245.4983136 magnetization      63.0115063

 Broyden mixing:
  rms(total) = 0.66348E-01    rms(broyden)= 0.66348E-01
  rms(prec ) = 0.67729E-01
  weight for this iteration     100.00

 eigenvalues of (default mixing * dielectric matrix)
  average eigenvalue GAMMA=   0.8101
  1.7084  0.8448  0.8448  0.5082  0.5082  0.4461

 Free energy of the ion-electron system (eV)
  ---------------------------------------------------
  alpha Z        PSCENC =      1915.67052055
  Ewald energy   TEWEN  =    -48531.53669905
  -Hartree energ DENC   =    -28980.73210675
  -exchange      EXHF   =         0.00000000
  -V(xc)+E(xc)   XCENC  =      3296.78658182
  PAW double counting   =     81617.64806226   -84331.27220444
  entropy T*S    EENTRO =        -0.00000000
  eigenvalues    EBANDS =    -11334.96300301
  atomic energy  EATOM  =     85731.96378919
  Solvation  Ediel_sol  =         0.00000000
  ---------------------------------------------------
  free energy    TOTEN  =      -616.43505942 eV

  energy without entropy =     -616.43505942  energy(sigma->0) =     -616.43505942


--------------------------------------------------------------------------------------------------------




--------------------------------------- Iteration      1(  12)  ---------------------------------------


    POTLOK:  cpu time    0.4851: real time    0.4950
    SETDIJ:  cpu time    1.4498: real time    1.4635
     EDDAV:  cpu time  195.3792: real time  197.0198
       DOS:  cpu time    0.0027: real time    0.0027
    CHARGE:  cpu time    5.7414: real time    5.7480
    MIXING:  cpu time    0.0223: real time    0.0485
    --------------------------------------------
      LOOP:  cpu time  203.0805: real time  204.7774

 eigenvalue-minimisations  : 28232
 total energy-change (2. order) :-0.2756311E-03  (-0.4061234E-06)
 number of electron     768.0000015 magnetization      96.0001447
 augmentation part      245.4981622 magnetization      63.0112829

 Broyden mixing:
  rms(total) = 0.68813E-01    rms(broyden)= 0.68813E-01
  rms(prec ) = 0.70337E-01
  weight for this iteration     100.00

 eigenvalues of (default mixing * dielectric matrix)
  average eigenvalue GAMMA=   0.9688
  1.7675  1.7675  0.8334  0.8334  0.5449  0.5449  0.4897

 Free energy of the ion-electron system (eV)
  ---------------------------------------------------
  alpha Z        PSCENC =      1915.67052055
  Ewald energy   TEWEN  =    -48531.53669905
  -Hartree energ DENC   =    -28980.45387582
  -exchange      EXHF   =         0.00000000
  -V(xc)+E(xc)   XCENC  =      3296.75476895
  PAW double counting   =     81617.33484792   -84330.94019029
  entropy T*S    EENTRO =        -0.00000000
  eigenvalues    EBANDS =    -11335.22849650
  atomic energy  EATOM  =     85731.96378919
  Solvation  Ediel_sol  =         0.00000000
  ---------------------------------------------------
  free energy    TOTEN  =      -616.43533505 eV

  energy without entropy =     -616.43533505  energy(sigma->0) =     -616.43533505


--------------------------------------------------------------------------------------------------------




--------------------------------------- Iteration      1(  13)  ---------------------------------------


    POTLOK:  cpu time    0.5023: real time    0.5055
    SETDIJ:  cpu time    1.5196: real time    1.5202
     EDDAV:  cpu time  325.9901: real time  329.2021
       DOS:  cpu time    0.0023: real time    0.0023
    CHARGE:  cpu time    5.7664: real time    5.7981
    MIXING:  cpu time    0.0300: real time    0.0346
    --------------------------------------------
      LOOP:  cpu time  333.8107: real time  337.0628

 eigenvalue-minimisations  : 53264
 total energy-change (2. order) : 0.3233856E-02  (-0.1903065E-03)
 number of electron     768.0000015 magnetization      96.0001192
 augmentation part      245.5184353 magnetization      63.0117252

 Broyden mixing:
  rms(total) = 0.25568E-01    rms(broyden)= 0.25567E-01
  rms(prec ) = 0.25682E-01
  weight for this iteration     100.00

 eigenvalues of (default mixing * dielectric matrix)
  average eigenvalue GAMMA=   0.9265
  1.7277  1.7277  0.9074  0.9074  0.5894  0.5894  0.4816  0.4816

 Free energy of the ion-electron system (eV)
  ---------------------------------------------------
  alpha Z        PSCENC =      1915.67052055
  Ewald energy   TEWEN  =    -48531.53669905
  -Hartree energ DENC   =    -28984.34578331
  -exchange      EXHF   =         0.00000000
  -V(xc)+E(xc)   XCENC  =      3297.27749806
  PAW double counting   =     81662.59844290   -84377.59173246
  entropy T*S    EENTRO =        -0.00000000
  eigenvalues    EBANDS =    -11330.46813708
  atomic energy  EATOM  =     85731.96378919
  Solvation  Ediel_sol  =         0.00000000
  ---------------------------------------------------
  free energy    TOTEN  =      -616.43210119 eV

  energy without entropy =     -616.43210119  energy(sigma->0) =     -616.43210119


--------------------------------------------------------------------------------------------------------




--------------------------------------- Iteration      1(  14)  ---------------------------------------


    POTLOK:  cpu time    0.4915: real time    0.5037
    SETDIJ:  cpu time    1.4246: real time    1.4614
     EDDAV:  cpu time  229.2490: real time  231.8767
       DOS:  cpu time    0.0028: real time    0.0028
    CHARGE:  cpu time    5.6730: real time    5.7066
    MIXING:  cpu time    0.0317: real time    0.0352
    --------------------------------------------
      LOOP:  cpu time  236.8726: real time  239.5864

 eigenvalue-minimisations  : 34856
 total energy-change (2. order) :-0.2053363E-03  (-0.2130908E-03)
 number of electron     768.0000015 magnetization      96.0001283
 augmentation part      245.5411651 magnetization      63.0105820

 Broyden mixing:
  rms(total) = 0.21282E-01    rms(broyden)= 0.21281E-01
  rms(prec ) = 0.21429E-01
  weight for this iteration     100.00

 eigenvalues of (default mixing * dielectric matrix)
  average eigenvalue GAMMA=   0.8352
  1.4759  1.4759  0.9899  0.9899  0.5947  0.5947  0.4773  0.4773  0.4414

 Free energy of the ion-electron system (eV)
  ---------------------------------------------------
  alpha Z        PSCENC =      1915.67052055
  Ewald energy   TEWEN  =    -48531.53669905
  -Hartree energ DENC   =    -28984.33511848
  -exchange      EXHF   =         0.00000000
  -V(xc)+E(xc)   XCENC  =      3297.28801757
  PAW double counting   =     81672.98453182   -84388.24096003
  entropy T*S    EENTRO =        -0.00000000
  eigenvalues    EBANDS =    -11330.22638812
  atomic energy  EATOM  =     85731.96378919
  Solvation  Ediel_sol  =         0.00000000
  ---------------------------------------------------
  free energy    TOTEN  =      -616.43230653 eV

  energy without entropy =     -616.43230653  energy(sigma->0) =     -616.43230653


--------------------------------------------------------------------------------------------------------




--------------------------------------- Iteration      1(  15)  ---------------------------------------


    POTLOK:  cpu time    0.4799: real time    0.4819
    SETDIJ:  cpu time    1.4727: real time    1.4756
     EDDAV:  cpu time  226.8234: real time  229.1659
       DOS:  cpu time    0.0021: real time    0.0029
    CHARGE:  cpu time    5.8577: real time    5.9061
    MIXING:  cpu time    0.0284: real time    0.0343
    --------------------------------------------
      LOOP:  cpu time  234.6645: real time  237.0672

 eigenvalue-minimisations  : 34472
 total energy-change (2. order) :-0.4704921E-04  (-0.3178845E-05)
 number of electron     768.0000015 magnetization      96.0001246
 augmentation part      245.5417551 magnetization      63.0105990

 Broyden mixing:
  rms(total) = 0.21025E-01    rms(broyden)= 0.21024E-01
  rms(prec ) = 0.21093E-01
  weight for this iteration     100.00

 eigenvalues of (default mixing * dielectric matrix)
  average eigenvalue GAMMA=   0.8043
  1.5685  1.5685  1.0009  1.0009  0.6076  0.6076  0.4901  0.4901  0.4561  0.2527

 Free energy of the ion-electron system (eV)
  ---------------------------------------------------
  alpha Z        PSCENC =      1915.67052055
  Ewald energy   TEWEN  =    -48531.53669905
  -Hartree energ DENC   =    -28983.96350616
  -exchange      EXHF   =         0.00000000
  -V(xc)+E(xc)   XCENC  =      3297.24337485
  PAW double counting   =     81672.59118568   -84387.79558624
  entropy T*S    EENTRO =        -0.00000000
  eigenvalues    EBANDS =    -11330.60543241
  atomic energy  EATOM  =     85731.96378919
  Solvation  Ediel_sol  =         0.00000000
  ---------------------------------------------------
  free energy    TOTEN  =      -616.43235358 eV

  energy without entropy =     -616.43235358  energy(sigma->0) =     -616.43235358


--------------------------------------------------------------------------------------------------------




--------------------------------------- Iteration      1(  16)  ---------------------------------------


    POTLOK:  cpu time    0.4823: real time    0.4849
    SETDIJ:  cpu time    1.4684: real time    1.4824
     EDDAV:  cpu time  199.7440: real time  201.6645
       DOS:  cpu time    0.0021: real time    0.0021
    CHARGE:  cpu time    5.7147: real time    5.7543
    MIXING:  cpu time    0.0295: real time    0.0432
    --------------------------------------------
      LOOP:  cpu time  207.4409: real time  209.4309

 eigenvalue-minimisations  : 29168
 total energy-change (2. order) : 0.1974982E-04  (-0.2968799E-05)
 number of electron     768.0000015 magnetization      96.0001251
 augmentation part      245.5411976 magnetization      63.0105388

 Broyden mixing:
  rms(total) = 0.20941E-01    rms(broyden)= 0.20940E-01
  rms(prec ) = 0.21031E-01
  weight for this iteration     100.00

 eigenvalues of (default mixing * dielectric matrix)
  average eigenvalue GAMMA=   0.7835
  1.5690  1.5690  1.0379  1.0379  0.5041  0.6170  0.6170  0.4955  0.4955  0.4578
  0.2175

 Free energy of the ion-electron system (eV)
  ---------------------------------------------------
  alpha Z        PSCENC =      1915.67052055
  Ewald energy   TEWEN  =    -48531.53669905
  -Hartree energ DENC   =    -28984.09962529
  -exchange      EXHF   =         0.00000000
  -V(xc)+E(xc)   XCENC  =      3297.26093253
  PAW double counting   =     81672.98719803   -84388.22297893
  entropy T*S    EENTRO =        -0.00000000
  eigenvalues    EBANDS =    -11330.45547087
  atomic energy  EATOM  =     85731.96378919
  Solvation  Ediel_sol  =         0.00000000
  ---------------------------------------------------
  free energy    TOTEN  =      -616.43233383 eV

  energy without entropy =     -616.43233383  energy(sigma->0) =     -616.43233383


--------------------------------------------------------------------------------------------------------




--------------------------------------- Iteration      1(  17)  ---------------------------------------


    POTLOK:  cpu time    0.4877: real time    0.4963
    SETDIJ:  cpu time    1.4501: real time    1.5010
     EDDAV:  cpu time  195.5795: real time  197.4831
       DOS:  cpu time    0.0021: real time    0.0023
    --------------------------------------------
      LOOP:  cpu time  197.5194: real time  199.4827

 eigenvalue-minimisations  : 28440
 total energy-change (2. order) :-0.7871713E-06  (-0.2654377E-06)
 number of electron     768.0000015 magnetization      96.0001251
 augmentation part      245.5411976 magnetization      63.0105388

 Free energy of the ion-electron system (eV)
  ---------------------------------------------------
  alpha Z        PSCENC =      1915.67052055
  Ewald energy   TEWEN  =    -48531.53669905
  -Hartree energ DENC   =    -28984.09436647
  -exchange      EXHF   =         0.00000000
  -V(xc)+E(xc)   XCENC  =      3297.26029980
  PAW double counting   =     81672.89524640   -84388.12900461
  entropy T*S    EENTRO =        -0.00000000
  eigenvalues    EBANDS =    -11330.46212044
  atomic energy  EATOM  =     85731.96378919
  Solvation  Ediel_sol  =         0.00000000
  ---------------------------------------------------
  free energy    TOTEN  =      -616.43233462 eV

  energy without entropy =     -616.43233462  energy(sigma->0) =     -616.43233462


--------------------------------------------------------------------------------------------------------




 average (electrostatic) potential at core
  the test charge radii are     0.7079  0.7215  0.9698  0.9500
  (the norm of the test charge is              1.0000)
       1 -59.3919       2 -59.3938       3 -59.3941       4 -59.3937       5 -59.3930
       6 -59.3928       7 -59.3928       8 -59.3920       9 -59.3921      10 -59.3922
      11 -59.3922      12 -59.3939      13 -59.3916      14 -59.3929      15 -59.3934
      16 -59.3905      17 -59.3915      18 -59.3921      19 -59.3931      20 -59.3924
      21 -59.3935      22 -59.3945      23 -59.3931      24 -59.3935      25 -59.5898
      26 -59.5968      27 -59.5918      28 -59.5952      29 -59.5905      30 -59.5955
      31 -59.5943      32 -59.5946      33 -59.5989      34 -59.5945      35 -59.5954
      36 -59.5930      37 -59.5937      38 -59.5939      39 -59.5939      40 -59.5974
      41 -59.5937      42 -59.5907      43 -59.5973      44 -59.5925      45 -59.5962
      46 -59.5937      47 -59.5896      48 -59.5920      49 -70.1796      50 -70.1788
      51 -70.1795      52 -70.1788      53 -70.1786      54 -70.1792      55 -70.1776
      56 -70.1784      57 -70.1777      58 -70.1781      59 -70.1784      60 -70.1784
      61 -70.1777      62 -70.1785      63 -70.1774      64 -70.1779      65 -70.1783
      66 -70.1779      67 -70.1793      68 -70.1787      69 -70.1794      70 -70.1791
      71 -70.1789      72 -70.1792      73 -85.9997      74 -86.0042      75 -86.0042
      76 -86.0046      77 -86.0046      78 -86.0046      79 -86.0092      80 -86.0053
      81 -86.0054      82 -86.0049      83 -86.0050      84 -86.0050      85 -86.0055
      86 -86.0050      87 -86.0052      88 -86.0054      89 -86.0051      90 -86.0051
      91 -86.0043      92 -86.0045      93 -86.0046      94 -86.0043      95 -86.0045
      96 -86.0045      97 -79.0590      98 -79.0588      99 -79.0589     100 -79.0599
     101 -79.0590     102 -79.0599     103 -79.0586     104 -79.0586     105 -79.0584
     106 -79.0577     107 -79.0585     108 -79.0577     109 -79.0572     110 -79.0585
     111 -79.0569     112 -79.0586     113 -79.0588     114 -79.0586     115 -79.0604
     116 -79.0588     117 -79.0602     118 -79.0589     119 -79.0589     120 -79.0591
 
 
 
 E-fermi :   4.4076     XC(G=0): -10.1824     alpha+bet :-12.6708


 spin component 1

 k-point     1 :       0.0000    0.0000    0.0000
  band No.  band energies     occupation 
      1     -51.4832      1.00000
      2     -51.4831      1.00000
      3     -51.4825      1.00000
      4     -51.4822      1.00000
      5     -51.4816      1.00000
      6     -51.4815      1.00000
      7     -51.4676      1.00000
      8     -51.4675      1.00000
      9     -51.4674      1.00000
     10     -51.4673      1.00000
     11     -51.4668      1.00000
     12     -51.4668      1.00000
     13     -51.4665      1.00000
     14     -51.4664      1.00000
     15     -51.4660      1.00000
     16     -51.4660      1.00000
     17     -51.4658      1.00000
     18     -51.4657      1.00000
     19     -51.4519      1.00000
     20     -51.4519      1.00000
     21     -51.4513      1.00000
     22     -51.4510      1.00000
     23     -51.4504      1.00000
     24     -51.4503      1.00000
     25     -50.2026      1.00000
     26     -50.2023      1.00000
     27     -50.2015      1.00000
     28     -50.2015      1.00000
     29     -50.2011      1.00000
     30     -50.2005      1.00000
     31     -50.1999      1.00000
     32     -50.1997      1.00000
     33     -50.1996      1.00000
     34     -50.1995      1.00000
     35     -50.1988      1.00000
     36     -50.1988      1.00000
     37     -50.1988      1.00000
     38     -50.1987      1.00000
     39     -50.1984      1.00000
     40     -50.1981      1.00000
     41     -50.1978      1.00000
     42     -50.1976      1.00000
     43     -50.1970      1.00000
     44     -50.1968      1.00000
     45     -50.1961      1.00000
     46     -50.1960      1.00000
     47     -50.1954      1.00000
     48     -50.1949      1.00000
     49     -50.0080      1.00000
     50     -50.0079      1.00000
     51     -50.0073      1.00000
     52     -50.0069      1.00000
     53     -50.0064      1.00000
     54     -50.0063      1.00000
     55     -49.9918      1.00000
     56     -49.9918      1.00000
     57     -49.9916      1.00000
     58     -49.9915      1.00000
     59     -49.9910      1.00000
     60     -49.9910      1.00000
     61     -49.9907      1.00000
     62     -49.9906      1.00000
     63     -49.9903      1.00000
     64     -49.9902      1.00000
     65     -49.9900      1.00000
     66     -49.9898      1.00000
     67     -49.9752      1.00000
     68     -49.9751      1.00000
     69     -49.9745      1.00000
     70     -49.9742      1.00000
     71     -49.9736      1.00000
     72     -49.9735      1.00000
     73     -40.5269      1.00000
     74     -40.5258      1.00000
     75     -40.5248      1.00000
     76     -40.5237      1.00000
     77     -40.5227      1.00000
     78     -40.5227      1.00000
     79     -40.5178      1.00000
     80     -40.5174      1.00000
     81     -40.5171      1.00000
     82     -40.5164      1.00000
     83     -40.5155      1.00000
     84     -40.5155      1.00000
     85     -40.5150      1.00000
     86     -40.5149      1.00000
     87     -40.5144      1.00000
     88     -40.5137      1.00000
     89     -40.5130      1.00000
     90     -40.5117      1.00000
     91     -40.5075      1.00000
     92     -40.5068      1.00000
     93     -40.5057      1.00000
     94     -40.5054      1.00000
     95     -40.5050      1.00000
     96     -40.5048      1.00000
     97     -40.3087      1.00000
     98     -40.3083      1.00000
     99     -40.3082      1.00000
    100     -40.3081      1.00000
    101     -40.3078      1.00000
    102     -40.3075      1.00000
    103     -40.3075      1.00000
    104     -40.3074      1.00000
    105     -40.3073      1.00000
    106     -40.3071      1.00000
    107     -40.3070      1.00000
    108     -40.3069      1.00000
    109     -40.3069      1.00000
    110     -40.3065      1.00000
    111     -40.3063      1.00000
    112     -40.3063      1.00000
    113     -40.3060      1.00000
    114     -40.3059      1.00000
    115     -40.3058      1.00000
    116     -40.3058      1.00000
    117     -40.3053      1.00000
    118     -40.3051      1.00000
    119     -40.3050      1.00000
    120     -40.3041      1.00000
    121     -13.5432      1.00000
    122     -13.5431      1.00000
    123     -13.5128      1.00000
    124     -13.5127      1.00000
    125     -13.5122      1.00000
    126     -13.4896      1.00000
    127     -13.3756      1.00000
    128     -13.3752      1.00000
    129     -13.3751      1.00000
    130     -13.3751      1.00000
    131     -13.3736      1.00000
    132     -13.3736      1.00000
    133     -13.3736      1.00000
    134     -13.3733      1.00000
    135     -13.3413      1.00000
    136     -13.3411      1.00000
    137     -13.3375      1.00000
    138     -13.3374      1.00000
    139     -13.2393      1.00000
    140     -13.2392      1.00000
    141     -13.2025      1.00000
    142     -13.2025      1.00000
    143     -13.1982      1.00000
    144     -13.1656      1.00000
    145      -7.7348      1.00000
    146      -7.6698      1.00000
    147      -7.5828      1.00000
    148      -7.5827      1.00000
    149      -7.5410      1.00000
    150      -7.5408      1.00000
    151      -7.5307      1.00000
    152      -7.5306      1.00000
    153      -7.4088      1.00000
    154      -7.3746      1.00000
    155      -7.3746      1.00000
    156      -7.3522      1.00000
    157      -7.3521      1.00000
    158      -7.3520      1.00000
    159      -7.3520      1.00000
    160      -7.3432      1.00000
    161      -7.3432      1.00000
    162      -7.3431      1.00000
    163      -7.3425      1.00000
    164      -7.3151      1.00000
    165      -7.3149      1.00000
    166      -7.2343      1.00000
    167      -7.1164      1.00000
    168      -7.1163      1.00000
    169      -1.9254      1.00000
    170      -1.9149      1.00000
    171      -1.8868      1.00000
    172      -1.8451      1.00000
    173      -1.8450      1.00000
    174      -1.7997      1.00000
    175      -1.7997      1.00000
    176      -1.7918      1.00000
    177      -1.7918      1.00000
    178      -1.7917      1.00000
    179      -1.7781      1.00000
    180      -1.7780      1.00000
    181      -1.5324      1.00000
    182      -1.5324      1.00000
    183      -1.5149      1.00000
    184      -1.5149      1.00000
    185      -1.4879      1.00000
    186      -1.4879      1.00000
    187      -1.4878      1.00000
    188      -1.4878      1.00000
    189      -1.4734      1.00000
    190      -1.4734      1.00000
    191      -1.4734      1.00000
    192      -1.4733      1.00000
    193      -1.4342      1.00000
    194      -1.4342      1.00000
    195      -1.3247      1.00000
    196      -1.3246      1.00000
    197      -1.2053      1.00000
    198      -1.1839      1.00000
    199      -1.1565      1.00000
    200      -1.1563      1.00000
    201      -1.1563      1.00000
    202      -1.1563      1.00000
    203      -1.0799      1.00000
    204      -1.0799      1.00000
    205      -1.0583      1.00000
    206      -1.0583      1.00000
    207      -1.0582      1.00000
    208      -1.0582      1.00000
    209      -0.9977      1.00000
    210      -0.9977      1.00000
    211      -0.9799      1.00000
    212      -0.9799      1.00000
    213      -0.9381      1.00000
    214      -0.9380      1.00000
    215      -0.9380      1.00000
    216      -0.9379      1.00000
    217      -0.9177      1.00000
    218      -0.9176      1.00000
    219      -0.9176      1.00000
    220      -0.9176      1.00000
    221      -0.9078      1.00000
    222      -0.9078      1.00000
    223      -0.8214      1.00000
    224      -0.8211      1.00000
    225      -0.8184      1.00000
    226      -0.8182      1.00000
    227      -0.6982      1.00000
    228      -0.6680      1.00000
    229      -0.6394      1.00000
    230      -0.6026      1.00000
    231      -0.5702      1.00000
    232      -0.5063      1.00000
    233      -0.5052      1.00000
    234      -0.5052      1.00000
    235      -0.5052      1.00000
    236      -0.5052      1.00000
    237      -0.4620      1.00000
    238      -0.4620      1.00000
    239      -0.4593      1.00000
    240      -0.4593      1.00000
    241      -0.3997      1.00000
    242      -0.3996      1.00000
    243      -0.3982      1.00000
    244      -0.3982      1.00000
    245      -0.3982      1.00000
    246      -0.3982      1.00000
    247      -0.2861      1.00000
    248      -0.2860      1.00000
    249      -0.2825      1.00000
    250      -0.2824      1.00000
    251      -0.2798      1.00000
    252      -0.2797      1.00000
    253      -0.1802      1.00000
    254      -0.1762      1.00000
    255      -0.1466      1.00000
    256      -0.1466      1.00000
    257      -0.1332      1.00000
    258      -0.1332      1.00000
[...]
   0.141E+00 0.305E+02 -.266E+03   -.149E+00 -.319E+02 0.274E+03   0.684E-02 0.140E+01 -.824E+01   0.309E-03 -.984E-03 0.225E-02
   0.190E+00 0.306E+02 -.266E+03   -.200E+00 -.320E+02 0.274E+03   0.112E-01 0.140E+01 -.824E+01   -.790E-03 -.508E-03 0.188E-02
   0.167E+00 0.305E+02 -.266E+03   -.176E+00 -.319E+02 0.274E+03   0.901E-02 0.140E+01 -.824E+01   -.224E-04 -.783E-03 0.278E-02
   0.143E+00 0.306E+02 -.266E+03   -.151E+00 -.320E+02 0.274E+03   0.668E-02 0.140E+01 -.824E+01   0.605E-03 -.753E-03 0.233E-02
   0.147E+00 0.306E+02 -.266E+03   -.154E+00 -.320E+02 0.274E+03   0.782E-02 0.140E+01 -.824E+01   -.934E-03 -.110E-02 0.118E-02
   0.166E+00 0.305E+02 -.266E+03   -.176E+00 -.319E+02 0.274E+03   0.886E-02 0.140E+01 -.824E+01   0.519E-03 -.124E-02 0.137E-02
   0.187E+00 0.306E+02 -.266E+03   -.198E+00 -.320E+02 0.274E+03   0.101E-01 0.140E+01 -.824E+01   0.460E-03 -.133E-02 0.684E-03
   0.148E+00 0.305E+02 -.266E+03   -.155E+00 -.319E+02 0.274E+03   0.776E-02 0.140E+01 -.824E+01   -.739E-03 -.632E-03 0.872E-03
   0.166E+00 0.305E+02 -.266E+03   -.176E+00 -.319E+02 0.274E+03   0.890E-02 0.140E+01 -.824E+01   0.267E-03 -.106E-02 0.110E-02
   0.186E+00 0.305E+02 -.266E+03   -.196E+00 -.319E+02 0.274E+03   0.102E-01 0.140E+01 -.824E+01   0.354E-04 -.791E-03 0.168E-02
   -.120E+00 -.245E+02 -.149E+03   0.124E+00 0.250E+02 0.151E+03   -.291E-02 -.547E+00 -.115E+01   -.609E-03 -.626E-04 0.129E-02
   -.924E-01 -.245E+02 -.149E+03   0.946E-01 0.251E+02 0.150E+03   -.188E-02 -.546E+00 -.115E+01   -.713E-04 0.439E-03 -.220E-02
   -.149E+00 -.245E+02 -.149E+03   0.153E+00 0.251E+02 0.150E+03   -.448E-02 -.546E+00 -.115E+01   0.509E-03 -.393E-04 -.209E-02
   -.120E+00 -.245E+02 -.149E+03   0.124E+00 0.251E+02 0.150E+03   -.294E-02 -.546E+00 -.115E+01   -.736E-03 0.406E-03 -.267E-02
   -.117E+00 -.245E+02 -.149E+03   0.120E+00 0.251E+02 0.150E+03   -.315E-02 -.547E+00 -.115E+01   0.373E-04 0.102E-03 -.243E-02
   -.125E+00 -.245E+02 -.149E+03   0.127E+00 0.251E+02 0.150E+03   -.337E-02 -.546E+00 -.115E+01   0.351E-03 0.915E-03 -.185E-02
   -.121E+00 -.245E+02 -.149E+03   0.124E+00 0.251E+02 0.151E+03   -.275E-02 -.546E+00 -.116E+01   -.169E-03 0.458E-03 -.326E-03
   -.146E+00 -.245E+02 -.149E+03   0.150E+00 0.251E+02 0.150E+03   -.438E-02 -.547E+00 -.115E+01   0.482E-03 0.298E-03 -.256E-02
   -.953E-01 -.245E+02 -.149E+03   0.975E-01 0.251E+02 0.150E+03   -.183E-02 -.547E+00 -.115E+01   -.119E-03 -.416E-04 -.298E-02
   -.120E+00 -.245E+02 -.149E+03   0.124E+00 0.251E+02 0.150E+03   -.295E-02 -.547E+00 -.115E+01   -.339E-03 0.734E-03 -.255E-02
   -.124E+00 -.245E+02 -.149E+03   0.127E+00 0.251E+02 0.150E+03   -.343E-02 -.547E+00 -.115E+01   0.134E-03 0.530E-03 -.295E-02
   -.118E+00 -.245E+02 -.149E+03   0.120E+00 0.251E+02 0.150E+03   -.255E-02 -.547E+00 -.115E+01   0.341E-03 0.418E-03 -.262E-02
   -.120E+00 -.245E+02 0.149E+03   0.123E+00 0.250E+02 -.150E+03   -.300E-02 -.546E+00 0.115E+01   -.244E-03 0.533E-06 0.214E-02
   -.124E+00 -.245E+02 0.149E+03   0.126E+00 0.251E+02 -.150E+03   -.307E-02 -.546E+00 0.115E+01   0.168E-03 0.346E-03 0.306E-02
   -.118E+00 -.245E+02 0.149E+03   0.121E+00 0.251E+02 -.150E+03   -.318E-02 -.546E+00 0.115E+01   -.135E-03 0.640E-03 0.325E-02
   -.121E+00 -.245E+02 0.149E+03   0.124E+00 0.251E+02 -.150E+03   -.299E-02 -.547E+00 0.115E+01   -.303E-03 0.107E-02 0.186E-02
   -.123E+00 -.245E+02 0.149E+03   0.126E+00 0.251E+02 -.150E+03   -.368E-02 -.547E+00 0.115E+01   0.266E-03 0.397E-03 0.320E-02
   -.119E+00 -.245E+02 0.149E+03   0.121E+00 0.251E+02 -.150E+03   -.263E-02 -.547E+00 0.115E+01   0.261E-04 0.225E-03 0.299E-02
   -.120E+00 -.245E+02 0.149E+03   0.124E+00 0.251E+02 -.150E+03   -.329E-02 -.548E+00 0.114E+01   -.535E-03 -.463E-03 0.183E-02
   -.120E+00 -.245E+02 0.149E+03   0.122E+00 0.251E+02 -.150E+03   -.273E-02 -.547E+00 0.115E+01   0.196E-03 0.348E-03 0.185E-02
   -.123E+00 -.245E+02 0.149E+03   0.125E+00 0.251E+02 -.150E+03   -.302E-02 -.547E+00 0.115E+01   0.385E-03 0.412E-03 0.225E-02
   -.121E+00 -.245E+02 0.149E+03   0.124E+00 0.251E+02 -.150E+03   -.285E-02 -.546E+00 0.115E+01   -.283E-03 0.269E-03 0.210E-02
   -.120E+00 -.245E+02 0.149E+03   0.122E+00 0.251E+02 -.150E+03   -.281E-02 -.546E+00 0.115E+01   -.126E-03 0.706E-04 0.196E-02
   -.123E+00 -.245E+02 0.149E+03   0.125E+00 0.251E+02 -.150E+03   -.314E-02 -.546E+00 0.115E+01   0.683E-03 -.628E-04 0.177E-02
   -.998E-01 -.159E+02 0.822E+02   0.106E+00 0.171E+02 -.834E+02   -.445E-02 -.114E+01 0.122E+01   -.144E-02 -.161E-03 0.284E-02
   -.793E-01 -.159E+02 0.822E+02   0.830E-01 0.171E+02 -.834E+02   -.593E-02 -.114E+01 0.122E+01   0.201E-02 0.367E-03 0.268E-02
   -.534E-01 -.159E+02 0.822E+02   0.601E-01 0.171E+02 -.834E+02   -.476E-02 -.114E+01 0.122E+01   -.242E-02 -.101E-03 0.364E-02
   -.297E+00 -.161E+02 0.822E+02   0.311E+00 0.173E+02 -.834E+02   -.113E-01 -.115E+01 0.122E+01   0.802E-03 0.163E-02 0.347E-02
   -.795E-01 -.160E+02 0.822E+02   0.831E-01 0.171E+02 -.834E+02   -.608E-02 -.114E+01 0.122E+01   0.234E-02 -.665E-03 0.214E-02
   0.142E+00 -.161E+02 0.822E+02   -.143E+00 0.173E+02 -.834E+02   0.228E-02 -.115E+01 0.122E+01   -.550E-02 0.159E-02 0.248E-02
   -.643E-01 -.160E+02 0.821E+02   0.712E-01 0.171E+02 -.833E+02   -.479E-02 -.114E+01 0.122E+01   -.223E-02 -.140E-02 0.741E-03
   -.792E-01 -.160E+02 0.821E+02   0.831E-01 0.171E+02 -.834E+02   -.578E-02 -.114E+01 0.122E+01   0.165E-02 -.394E-04 0.141E-02
   -.891E-01 -.160E+02 0.821E+02   0.952E-01 0.171E+02 -.833E+02   -.417E-02 -.114E+01 0.122E+01   -.220E-02 0.307E-03 0.124E-02
   -.439E-01 -.159E+02 0.821E+02   0.435E-01 0.171E+02 -.833E+02   -.168E-03 -.114E+01 0.121E+01   -.901E-03 0.460E-03 0.834E-03
   -.790E-01 -.159E+02 0.821E+02   0.830E-01 0.171E+02 -.834E+02   -.605E-02 -.114E+01 0.122E+01   0.181E-02 -.840E-03 0.956E-03
   -.109E+00 -.159E+02 0.821E+02   0.122E+00 0.171E+02 -.833E+02   -.869E-02 -.114E+01 0.121E+01   -.324E-02 -.573E-03 0.162E-02
   -.173E-01 -.160E+02 -.823E+02   0.117E-01 0.171E+02 0.835E+02   0.447E-02 -.115E+01 -.122E+01   -.103E-02 -.371E-03 -.143E-02
   -.800E-01 -.160E+02 -.822E+02   0.831E-01 0.171E+02 0.834E+02   -.612E-02 -.114E+01 -.122E+01   0.280E-02 -.484E-03 -.216E-02
   -.136E+00 -.160E+02 -.823E+02   0.155E+00 0.171E+02 0.835E+02   -.135E-01 -.115E+01 -.122E+01   -.372E-02 -.898E-03 -.133E-02
   -.646E-01 -.159E+02 -.822E+02   0.713E-01 0.171E+02 0.834E+02   -.492E-02 -.114E+01 -.122E+01   -.190E-02 0.726E-03 -.254E-02
   -.788E-01 -.159E+02 -.822E+02   0.831E-01 0.171E+02 0.834E+02   -.606E-02 -.114E+01 -.122E+01   0.158E-02 0.609E-03 -.156E-02
   -.893E-01 -.159E+02 -.822E+02   0.947E-01 0.171E+02 0.834E+02   -.410E-02 -.114E+01 -.122E+01   -.160E-02 0.247E-03 -.235E-02
   -.372E+00 -.158E+02 -.822E+02   0.392E+00 0.169E+02 0.834E+02   -.156E-01 -.114E+01 -.122E+01   0.259E-03 -.252E-02 0.669E-03
   -.801E-01 -.159E+02 -.821E+02   0.830E-01 0.171E+02 0.834E+02   -.622E-02 -.114E+01 -.122E+01   0.310E-02 -.295E-03 -.196E-02
   0.221E+00 -.158E+02 -.822E+02   -.228E+00 0.169E+02 0.834E+02   0.719E-02 -.114E+01 -.122E+01   -.641E-02 -.206E-02 0.423E-03
   -.940E-01 -.160E+02 -.821E+02   0.996E-01 0.171E+02 0.834E+02   -.451E-02 -.114E+01 -.122E+01   -.129E-02 0.346E-03 -.204E-02
   -.790E-01 -.160E+02 -.821E+02   0.831E-01 0.171E+02 0.834E+02   -.595E-02 -.114E+01 -.122E+01   0.164E-02 -.303E-03 -.230E-02
   -.594E-01 -.160E+02 -.821E+02   0.668E-01 0.171E+02 0.834E+02   -.431E-02 -.114E+01 -.122E+01   -.335E-02 0.554E-04 -.117E-02
 -----------------------------------------------------------------------------------------------
   -.707E-01 -.191E+01 -.223E-01   0.137E-12 -.252E-12 0.625E-12   0.904E-01 0.193E+01 0.193E-01   -.205E-01 -.170E-01 0.408E-02
 
 
 POSITION                                       TOTAL-FORCE (eV/Angst)
 -----------------------------------------------------------------------------------
      0.43553      4.06770      4.00103         0.000145      0.000214     -0.017479
      4.34744      4.04855      3.99103         0.002173     -0.000055     -0.000438
      8.25935      4.02941      3.99103        -0.000377     -0.000015     -0.000446
      0.46293      9.67687      3.99103         0.000024     -0.000097     -0.000149
      4.37484      9.65772      3.99103         0.002053     -0.000051     -0.000295
      8.28675      9.63857      3.99103        -0.000206     -0.000005     -0.000305
      0.43553      4.06770      9.58884         0.000103     -0.000031      0.002684
      4.34744      4.04855      9.58884         0.001946     -0.000084      0.000003
      8.25935      4.02941      9.58884        -0.000159     -0.000023      0.000004
      0.46293      9.67687      9.58884         0.000045     -0.000090     -0.000243
      4.37484      9.65772      9.58884         0.002041     -0.000067     -0.000174
      8.28675      9.63857      9.58884        -0.000231     -0.000031     -0.000120
      0.42183      1.26312      1.60678         0.000124      0.001224      0.000064
      4.33373      1.24397      1.60678         0.001912      0.000025      0.000070
      8.24564      1.22482      1.60678        -0.000143      0.000043      0.000068
      0.44923      6.87229      1.60678         0.000130     -0.001433      0.000040
      4.36114      6.85314      1.60678         0.001927     -0.000167      0.000077
      8.27305      6.83399      1.60678        -0.000151     -0.000086      0.000064
      0.42183      1.26312      7.20459         0.000121     -0.000954      0.000490
      4.33373      1.24397      7.20459         0.002174     -0.000119      0.000343
      8.24564      1.22482      7.20459        -0.000354     -0.000095      0.000333
      0.44923      6.87229      7.20459         0.000082      0.000971      0.000490
      4.36114      6.85314      7.20459         0.002148      0.000013      0.000332
      8.27305      6.83399      7.20459        -0.000339      0.000023      0.000317
      2.38373      2.44499      3.05038        -0.002851      0.002030     -0.000818
      6.29564      2.42584      3.05038        -0.000186      0.000124     -0.000290
     10.20755      2.40669      3.05038         0.002519      0.002016     -0.000817
      2.41113      8.05416      3.05038        -0.000029     -0.000062     -0.000387
      6.32304      8.03501      3.05038        -0.000185      0.000077     -0.000201
     10.23495      8.01586      3.05038        -0.000335      0.000013     -0.000344
      2.38373      2.44499      8.64819         0.000288     -0.000315      0.000689
      6.29564      2.42584      8.64819        -0.000194     -0.000075      0.000183
     10.20755      2.40669      8.64819        -0.000652     -0.000310      0.000681
      2.41113      8.05416      8.64819        -0.000243      0.000059      0.000236
      6.32304      8.03501      8.64819        -0.000186     -0.000031      0.000115
     10.23495      8.01586      8.64819        -0.000102      0.000075      0.000265
      2.39743      5.24957      2.54743        -0.004144     -0.001997      0.000447
      6.30934      5.23042      2.54743        -0.000167     -0.000108     -0.000295
     10.22125      5.21128      2.54743         0.003740     -0.002031      0.000466
      2.42483     10.85874      2.54743        -0.000021      0.000068     -0.000334
      6.33674     10.83959      2.54743        -0.000170     -0.000006     -0.000193
     10.24865     10.82044      2.54743        -0.000344      0.000018     -0.000278
      2.39743      5.24957      8.14524         0.000719      0.000465      0.000748
      6.30934      5.23042      8.14524        -0.000162      0.000150      0.000264
     10.22125      5.21128      8.14524        -0.001090      0.000475      0.000707
      2.42483     10.85874      8.14524        -0.000201     -0.000007      0.000239
      6.33674     10.83959      8.14524        -0.000186      0.000076      0.000149
     10.24865     10.82044      8.14524        -0.000163     -0.000023      0.000268
      2.39183      4.11329      4.18453         0.002123      0.000121      0.006594
      6.30374      4.09414      4.18453        -0.000071      0.000183      0.001051
     10.21565      4.07499      4.18453        -0.002243      0.000079      0.006668
      2.41924      9.72245      4.18453        -0.000105      0.000227      0.000560
      6.33115      9.70331      4.18453        -0.000053      0.000185      0.000861
     10.24306      9.68416      4.18453        -0.000056      0.000133      0.000795
      2.39183      4.11329      9.78234         0.000517      0.000027     -0.001836
      6.30374      4.09414      9.78234        -0.000074      0.000089      0.000459
     10.21565      4.07499      9.78234        -0.000679      0.000034     -0.001878
      2.41924      9.72245      9.78234         0.000112      0.000025      0.000550
      6.33115      9.70331      9.78234         0.000022      0.000034      0.000743
     10.24306      9.68416      9.78234        -0.000357      0.000097      0.000620
      2.37813      1.30870      1.41328         0.000538     -0.001092     -0.000508
      6.29004      1.28956      1.41328        -0.000067      0.000003     -0.000601
     10.20195      1.27041      1.41328        -0.000702     -0.001037     -0.000564
      2.40554      6.91787      1.41328         0.000537      0.001151     -0.000449
      6.31744      6.89872      1.41328        -0.000009      0.000271     -0.000654
     10.22935      6.87958      1.41328        -0.000720      0.001138     -0.000559
      2.37813      1.30870      7.01109        -0.000317      0.001174     -0.000945
      6.29004      1.28956      7.01109        -0.000038      0.000345     -0.000972
     10.20195      1.27041      7.01109         0.000150      0.001230     -0.000900
      2.40554      6.91787      7.01109        -0.000310     -0.000791     -0.000883
      6.31744      6.89872      7.01109        -0.000032      0.000018     -0.000957
     10.22935      6.87958      7.01109         0.000144     -0.000734     -0.001008
      0.43605      4.15009      1.34677        -0.000116     -0.000305     -0.000793
      4.34796      4.13094      1.34677         0.000330     -0.000158     -0.000072
      8.25987      4.11179      1.34677        -0.000702     -0.000107     -0.000094
      0.46346      9.75926      1.34677        -0.000116     -0.000128      0.000034
      4.37537      9.74011      1.34677        -0.000079     -0.000155     -0.000129
      8.28728      9.72096      1.34677        -0.000295     -0.000184     -0.000184
      0.43605      4.15009      6.94458        -0.000135     -0.000224     -0.004009
      4.34796      4.13094      6.94458        -0.000628     -0.000175     -0.000379
      8.25987      4.11179      6.94458         0.000260     -0.000165     -0.000387
      0.46346      9.75926      6.94458        -0.000138     -0.000195     -0.000361
      4.37537      9.74011      6.94458        -0.000274     -0.000162     -0.000374
      8.28728      9.72096      6.94458        -0.000084     -0.000160     -0.000397
      0.42235      1.34551      4.25104        -0.000167      0.000097      0.002400
      4.33426      1.32636      4.25104        -0.000333     -0.000041      0.000500
      8.24617      1.30721      4.25104         0.000020     -0.000075      0.000490
      0.44976      6.95467      4.25104        -0.000144     -0.000444      0.002110
      4.36166      6.93553      4.25104        -0.000402     -0.000306      0.000462
      8.27357      6.91638      4.25104         0.000043     -0.000285      0.000479
      0.42235      1.34551      9.84885        -0.000135     -0.000455     -0.000745
      4.33426      1.32636      9.84885        -0.000033     -0.000250      0.000002
      8.24617      1.30721      9.84885        -0.000332     -0.000275     -0.000014
      0.44976      6.95467      9.84885        -0.000140      0.000229     -0.000736
      4.36166      6.93553      9.84885        -0.000022     -0.000027      0.000018
      8.27357      6.91638      9.84885        -0.000340     -0.000026      0.000031
      2.37239      0.12585      5.37429        -0.000041     -0.000363      0.000092
      6.28430      0.10670      5.37429        -0.000195      0.000026      0.000120
     10.19621      0.08756      5.37429        -0.000397     -0.000410      0.000063
      2.39979      5.73502      5.37429         0.003717      0.002891      0.000543
      6.31170      5.71587      5.37429        -0.000179      0.000138     -0.000015
     10.22361      5.69672      5.37429        -0.004169      0.002912      0.000526
      2.37239      0.12585     10.97210        -0.000124      0.000443      0.000199
      6.28430      0.10670     10.97210        -0.000197      0.000112     -0.000010
     10.19621      0.08756     10.97210        -0.000318      0.000416      0.000223
      2.39979      5.73502     10.97210        -0.001428     -0.000961      0.000899
      6.31170      5.71587     10.97210        -0.000198     -0.000053      0.000149
     10.22361      5.69672     10.97210         0.000969     -0.000996      0.000957
      2.38609      2.93043      0.22352        -0.002081      0.001268      0.000934
      6.29800      2.91129      0.22352        -0.000185      0.000223      0.000132
     10.20991      2.89214      0.22352         0.001633      0.001227      0.000966
      2.41350      8.53960      0.22352        -0.000094     -0.000254      0.000068
      6.32541      8.52045      0.22352        -0.000188      0.000011     -0.000053
     10.23731      8.50131      0.22352        -0.000376     -0.000265      0.000096
      2.38609      2.93043      5.82133         0.005365     -0.002861      0.001635
      6.29800      2.91129      5.82133        -0.000181     -0.000105     -0.000176
     10.20991      2.89214      5.82133        -0.005879     -0.002826      0.001616
      2.41350      8.53960      5.82133        -0.000199      0.000287     -0.000103
      6.32541      8.52045      5.82133        -0.000188      0.000117      0.000012
     10.23731      8.50131      5.82133        -0.000260      0.000299     -0.000139
 -----------------------------------------------------------------------------------
    total drift:                               -0.000897      0.000475      0.001107


--------------------------------------------------------------------------------------------------------



  FREE ENERGIE OF THE ION-ELECTRON SYSTEM (eV)
  ---------------------------------------------------
  free  energy   TOTEN  =      -616.43233462 eV

  energy  without entropy=     -616.43233462  energy(sigma->0) =     -616.43233462
 


--------------------------------------------------------------------------------------------------------


    POTLOK:  cpu time    1.8920: real time    1.9351


--------------------------------------------------------------------------------------------------------


     LOOP+:  cpu time 4755.2477: real time 4802.9681
    4ORBIT:  cpu time    0.0000: real time    0.0000

 total amount of memory used by VASP MPI-rank0   801761. kBytes
=======================================================================

   base      :      30000. kBytes
   nonl-proj :      92491. kBytes
   fftplans  :      50318. kBytes
   grid      :      44712. kBytes
   one-center:        622. kBytes
   wavefun   :     583618. kBytes
 
  
  
 General timing and accounting informations for this job:
 ========================================================
  
                  Total CPU time used (sec):     4853.474
                            User time (sec):     4800.285
                          System time (sec):       53.189
                         Elapsed time (sec):     4903.084
  
                   Maximum memory used (kb):      975964.
                   Average memory used (kb):           0.
  
                          Minor page faults:       586697
                          Major page faults:           12
                 Voluntary context switches:        50710
