<?xml version="1.0" encoding="ISO-8859-1"?>
<modeling>
 <generator>
  <i name="program" type="string">vasp </i>
  <i name="version" type="string">5.4.4.18Apr17-6-g9f103f2a35  </i>
  <i name="subversion" type="string">(build Oct 25 2017 14:42:18) complex            parallel </i>
  <i name="platform" type="string">LinuxIFC </i>
  <i name="date" type="string">2021 04 16 </i>
  <i name="time" type="string">13:53:09 </i>
 </generator>
 <incar>
  <i type="string" name="PREC">accurate</i>
  <i type="string" name="ALGO"> normal</i>
  <i type="logical" name="ADDGRID"> T  </i>
  <i type="int" name="ISPIN">     2</i>
  <i type="int" name="ICHARG">     1</i>
  <i type="int" name="NELM">   200</i>
  <i type="int" name="NELMIN">     8</i>
  <i name="EDIFF">      0.00000100</i>
  <i type="int" name="ISIF">     3</i>
  <i type="int" name="ISYM">     0</i>
  <i name="ENCUT">    650.00000000</i>
  <v name="MAGMOM">      0.60000000      0.60000000      0.60000000      0.60000000      0.60000000      0.60000000      0.60000000      0.60000000      0.60000000      0.60000000      0.60000000      0.60000000      0.60000000      0.60000000      0.60000000      0.60000000      0.60000000      0.60000000      0.60000000      0.60000000
      0.60000000      0.60000000      0.60000000      0.60000000      0.60000000      0.60000000      0.60000000      0.60000000      0.60000000      0.60000000      0.60000000      0.60000000      0.60000000      0.60000000      0.60000000      0.60000000      0.60000000      0.60000000      0.60000000      0.60000000
      0.60000000      0.60000000      0.60000000      0.60000000      0.60000000      0.60000000      0.60000000      0.60000000      0.60000000      0.60000000      0.60000000      0.60000000      0.60000000      0.60000000      0.60000000      0.60000000      0.60000000      0.60000000      0.60000000      0.60000000
      0.60000000      0.60000000      0.60000000      0.60000000      0.60000000      0.60000000      0.60000000      0.60000000      0.60000000      0.60000000      0.60000000      0.60000000      0.60000000      0.60000000      0.60000000      0.60000000      0.60000000      0.60000000      0.60000000      0.60000000
      0.60000000      0.60000000      0.60000000      0.60000000      0.60000000      0.60000000      0.60000000      0.60000000      0.60000000      0.60000000      0.60000000      0.60000000      0.60000000      0.60000000      0.60000000      0.60000000      5.00000000      5.00000000      5.00000000      5.00000000
      5.00000000      5.00000000      5.00000000      5.00000000      5.00000000      5.00000000      5.00000000      5.00000000      5.00000000      5.00000000      5.00000000      5.00000000      5.00000000      5.00000000      5.00000000      5.00000000      5.00000000      5.00000000      5.00000000      5.00000000
</v>
  <i type="logical" name="LREAL"> F  </i>
  <i type="int" name="ISMEAR">     0</i>
  <i name="SIGMA">      0.05000000</i>
  <i type="int" name="NWRITE">     1</i>
  <i type="int" name="LMAXMIX">     4</i>
  <i type="logical" name="LWAVE"> F  </i>
  <i type="logical" name="LASPH"> T  </i>
  <v type="int" name="KPOINT_BSE">    -1     0     0     0</v>
  <i type="int" name="NELM">   200</i>
  <i type="string" name="GGA"> pe</i>
  <i type="logical" name="LDAU"> T  </i>
  <v type="int" name="LDAUTYPE">     2</v>
  <v type="int" name="LDAUL">    -1    -1    -1     2</v>
  <v name="LDAUU">      0.00000000      0.00000000      0.00000000      4.00000000</v>
  <v name="LDAUJ">      0.00000000      0.00000000      0.00000000      0.00000000</v>
  <i type="logical" name="LASPH"> T  </i>
 </incar>
 <structure name="primitive_cell" >
  <crystal>
   <varray name="basis" >
    <v>      11.73572724      -0.05744286       0.00000000 </v>
    <v>       0.05480788      11.21833490       0.00000000 </v>
    <v>       0.00000000       0.00000000      11.19562010 </v>
   </varray>
   <i name="volume">   1473.99817718 </i>
   <varray name="rec_basis" >
    <v>       0.08520785      -0.00041629       0.00000000 </v>
    <v>       0.00043630       0.08913766       0.00000000 </v>
    <v>       0.00000000       0.00000000       0.08932064 </v>
   </varray>
  </crystal>
  <varray name="positions" >
   <v>       0.03541706       0.36277547       0.35737469 </v>
   <v>      -0.13124269       0.36769238       0.37376509 </v>
   <v>       0.20209064       0.36769238       0.37376509 </v>
   <v>       0.03542751       0.37011947       0.12029448 </v>
   <v>      -0.13123875       0.21898060       0.27246215 </v>
   <v>       0.20209458       0.21898060       0.27246215 </v>
   <v>      -0.13123875       0.46898060       0.22753785 </v>
   <v>       0.20209458       0.46898060       0.22753785 </v>
   <v>       0.03542751       0.12011947       0.37970552 </v>
   <v>       0.03542751      -0.37988053       0.37970552 </v>
   <v>      -0.13123946       0.26225309      -0.48003463 </v>
   <v>       0.20209387       0.26225309      -0.48003463 </v>
   <v>      -0.13123946      -0.48774691       0.48003463 </v>
   <v>       0.20209387      -0.48774691       0.48003463 </v>
   <v>       0.03542751       0.37011947      -0.37970552 </v>
   <v>       0.03541706       0.11277547       0.14351851 </v>
   <v>       0.03541706      -0.38722453       0.14351851 </v>
   <v>       0.36875039       0.36277547       0.35648149 </v>
   <v>      -0.29791628       0.36277547       0.35648149 </v>
   <v>      -0.13124269       0.11769238       0.12623491 </v>
   <v>       0.20209064       0.11769238       0.12623491 </v>
   <v>       0.03541706       0.11277547      -0.35648149 </v>
   <v>       0.03541706      -0.38722453      -0.35648149 </v>
   <v>      -0.13124269      -0.38230762       0.12623491 </v>
   <v>       0.20209064      -0.38230762       0.12623491 </v>
   <v>      -0.13123946       0.26225309       0.01996537 </v>
   <v>       0.20209387       0.26225309       0.01996537 </v>
   <v>      -0.13124269       0.11769238      -0.37376509 </v>
   <v>       0.20209064       0.11769238      -0.37376509 </v>
   <v>      -0.13123875      -0.28101940       0.27246215 </v>
   <v>       0.20209458      -0.28101940       0.27246215 </v>
   <v>      -0.13124269      -0.38230762      -0.37376509 </v>
   <v>       0.20209064      -0.38230762      -0.37376509 </v>
   <v>      -0.13123946       0.01225309       0.48003463 </v>
   <v>       0.20209387       0.01225309       0.48003463 </v>
   <v>      -0.29790582       0.37011947       0.12029448 </v>
   <v>       0.36876084       0.37011947       0.12029448 </v>
   <v>      -0.13123875       0.46898060      -0.27246215 </v>
   <v>       0.20209458       0.46898060      -0.27246215 </v>
   <v>      -0.29790582       0.12011947       0.37970552 </v>
   <v>       0.36876084       0.12011947       0.37970552 </v>
   <v>      -0.29790582      -0.37988053       0.37970552 </v>
   <v>       0.36876084      -0.37988053       0.37970552 </v>
   <v>      -0.29790582       0.37011947      -0.37970552 </v>
   <v>       0.36876084       0.37011947      -0.37970552 </v>
   <v>      -0.13123946      -0.48774691      -0.01996537 </v>
   <v>       0.20209387      -0.48774691      -0.01996537 </v>
   <v>      -0.13123875      -0.03101940       0.22753785 </v>
   <v>       0.20209458      -0.03101940       0.22753785 </v>
   <v>      -0.13123946      -0.23774691      -0.48003463 </v>
   <v>       0.20209387      -0.23774691      -0.48003463 </v>
   <v>      -0.13123875       0.21898060      -0.22753785 </v>
   <v>       0.20209458       0.21898060      -0.22753785 </v>
   <v>       0.36875039      -0.38722453       0.14351851 </v>
   <v>      -0.29791628       0.11277547       0.14351851 </v>
   <v>       0.36875039       0.11277547       0.14351851 </v>
   <v>      -0.29791628      -0.38722453       0.14351851 </v>
   <v>       0.03541706       0.36277547      -0.14351851 </v>
   <v>       0.03541706      -0.13722453       0.35648149 </v>
   <v>      -0.13124269       0.36769238      -0.12623491 </v>
   <v>       0.20209064       0.36769238      -0.12623491 </v>
   <v>       0.36875039      -0.38722453      -0.35648149 </v>
   <v>      -0.29791628       0.11277547      -0.35648149 </v>
   <v>       0.36875039       0.11277547      -0.35648149 </v>
   <v>      -0.29791628      -0.38722453      -0.35648149 </v>
   <v>      -0.46457602       0.36769238       0.37376509 </v>
   <v>      -0.13124269      -0.13230762       0.37376509 </v>
   <v>       0.20209064      -0.13230762       0.37376509 </v>
   <v>       0.03542751       0.12011947      -0.12029448 </v>
   <v>       0.03542751      -0.37988053      -0.12029448 </v>
   <v>      -0.13123946       0.01225309      -0.01996537 </v>
   <v>       0.20209387       0.01225309      -0.01996537 </v>
   <v>       0.03542751      -0.12988053       0.12029448 </v>
   <v>      -0.46457208       0.21898060       0.27246215 </v>
   <v>      -0.46457208       0.46898060       0.22753785 </v>
   <v>      -0.13123946      -0.23774691       0.01996537 </v>
   <v>       0.20209387      -0.23774691       0.01996537 </v>
   <v>      -0.46457280       0.26225309      -0.48003463 </v>
   <v>      -0.46457280      -0.48774691       0.48003463 </v>
   <v>       0.03542751      -0.12988053      -0.37970552 </v>
   <v>      -0.13123875      -0.03101940      -0.27246215 </v>
   <v>       0.20209458      -0.03101940      -0.27246215 </v>
   <v>      -0.13123875      -0.28101940      -0.22753785 </v>
   <v>       0.20209458      -0.28101940      -0.22753785 </v>
   <v>       0.36875039       0.36277547      -0.14351851 </v>
   <v>      -0.29791628       0.36277547      -0.14351851 </v>
   <v>       0.36875039      -0.13722453       0.35648149 </v>
   <v>      -0.29791628      -0.13722453       0.35648149 </v>
   <v>      -0.46457602       0.11769238       0.12623491 </v>
   <v>      -0.46457602      -0.38230762       0.12623491 </v>
   <v>      -0.46457280       0.26225309       0.01996537 </v>
   <v>      -0.46457602       0.11769238      -0.37376509 </v>
   <v>      -0.46457208      -0.28101940       0.27246215 </v>
   <v>      -0.29790582       0.12011947      -0.12029448 </v>
   <v>       0.36876084       0.12011947      -0.12029448 </v>
   <v>      -0.46457602      -0.38230762      -0.37376509 </v>
   <v>      -0.46457280       0.01225309       0.48003463 </v>
   <v>      -0.29790582      -0.37988053      -0.12029448 </v>
   <v>       0.36876084      -0.37988053      -0.12029448 </v>
   <v>      -0.29790582      -0.12988053       0.12029448 </v>
   <v>       0.36876084      -0.12988053       0.12029448 </v>
   <v>      -0.46457208       0.46898060      -0.27246215 </v>
   <v>      -0.29790582      -0.12988053      -0.37970552 </v>
   <v>       0.36876084      -0.12988053      -0.37970552 </v>
   <v>      -0.46457280      -0.48774691      -0.01996537 </v>
   <v>      -0.46457208      -0.03101940       0.22753785 </v>
   <v>      -0.46457280      -0.23774691      -0.48003463 </v>
   <v>      -0.46457208       0.21898060      -0.22753785 </v>
   <v>       0.03541706      -0.13722453      -0.14351851 </v>
   <v>      -0.46457602       0.36769238      -0.12623491 </v>
   <v>      -0.13124269      -0.13230762      -0.12623491 </v>
   <v>       0.20209064      -0.13230762      -0.12623491 </v>
   <v>      -0.46457602      -0.13230762       0.37376509 </v>
   <v>      -0.46457280       0.01225309      -0.01996537 </v>
   <v>      -0.46457280      -0.23774691       0.01996537 </v>
   <v>      -0.46457208      -0.03101940      -0.27246215 </v>
   <v>      -0.46457208      -0.28101940      -0.22753785 </v>
   <v>       0.36875039      -0.13722453      -0.14351851 </v>
   <v>      -0.29791628      -0.13722453      -0.14351851 </v>
   <v>      -0.46457602      -0.13230762      -0.12623491 </v>
  </varray>
 </structure>
 <varray name="primitive_index" >
  <v type="int" >        1 </v>
  <v type="int" >       51 </v>
  <v type="int" >       49 </v>
  <v type="int" >       73 </v>
  <v type="int" >       27 </v>
  <v type="int" >       25 </v>
  <v type="int" >       39 </v>
  <v type="int" >       37 </v>
  <v type="int" >       85 </v>
  <v type="int" >       88 </v>
  <v type="int" >      117 </v>
  <v type="int" >      115 </v>
  <v type="int" >      102 </v>
  <v type="int" >      100 </v>
  <v type="int" >       79 </v>
  <v type="int" >       13 </v>
  <v type="int" >       16 </v>
  <v type="int" >        2 </v>
  <v type="int" >        3 </v>
  <v type="int" >       63 </v>
  <v type="int" >       61 </v>
  <v type="int" >       19 </v>
  <v type="int" >       22 </v>
  <v type="int" >       66 </v>
  <v type="int" >       64 </v>
  <v type="int" >      111 </v>
  <v type="int" >      109 </v>
  <v type="int" >       69 </v>
  <v type="int" >       67 </v>
  <v type="int" >       30 </v>
  <v type="int" >       28 </v>
  <v type="int" >       72 </v>
  <v type="int" >       70 </v>
  <v type="int" >       99 </v>
  <v type="int" >       97 </v>
  <v type="int" >       75 </v>
  <v type="int" >       74 </v>
  <v type="int" >       45 </v>
  <v type="int" >       43 </v>
  <v type="int" >       87 </v>
  <v type="int" >       86 </v>
  <v type="int" >       90 </v>
  <v type="int" >       89 </v>
  <v type="int" >       81 </v>
  <v type="int" >       80 </v>
  <v type="int" >      108 </v>
  <v type="int" >      106 </v>
  <v type="int" >       42 </v>
  <v type="int" >       40 </v>
  <v type="int" >      120 </v>
  <v type="int" >      118 </v>
  <v type="int" >       33 </v>
  <v type="int" >       31 </v>
  <v type="int" >       17 </v>
  <v type="int" >       15 </v>
  <v type="int" >       14 </v>
  <v type="int" >       18 </v>
  <v type="int" >        7 </v>
  <v type="int" >        4 </v>
  <v type="int" >       57 </v>
  <v type="int" >       55 </v>
  <v type="int" >       23 </v>
  <v type="int" >       21 </v>
  <v type="int" >       20 </v>
  <v type="int" >       24 </v>
  <v type="int" >       50 </v>
  <v type="int" >       54 </v>
  <v type="int" >       52 </v>
  <v type="int" >       91 </v>
  <v type="int" >       94 </v>
  <v type="int" >      105 </v>
  <v type="int" >      103 </v>
  <v type="int" >       76 </v>
  <v type="int" >       26 </v>
  <v type="int" >       38 </v>
  <v type="int" >      114 </v>
  <v type="int" >      112 </v>
  <v type="int" >      116 </v>
  <v type="int" >      101 </v>
  <v type="int" >       82 </v>
  <v type="int" >       48 </v>
  <v type="int" >       46 </v>
  <v type="int" >       36 </v>
  <v type="int" >       34 </v>
  <v type="int" >        8 </v>
  <v type="int" >        9 </v>
  <v type="int" >        5 </v>
  <v type="int" >        6 </v>
  <v type="int" >       62 </v>
  <v type="int" >       65 </v>
  <v type="int" >      110 </v>
  <v type="int" >       68 </v>
  <v type="int" >       29 </v>
  <v type="int" >       93 </v>
  <v type="int" >       92 </v>
  <v type="int" >       71 </v>
  <v type="int" >       98 </v>
  <v type="int" >       96 </v>
  <v type="int" >       95 </v>
  <v type="int" >       78 </v>
  <v type="int" >       77 </v>
  <v type="int" >       44 </v>
  <v type="int" >       84 </v>
  <v type="int" >       83 </v>
  <v type="int" >      107 </v>
  <v type="int" >       41 </v>
  <v type="int" >      119 </v>
  <v type="int" >       32 </v>
  <v type="int" >       10 </v>
  <v type="int" >       56 </v>
  <v type="int" >       60 </v>
  <v type="int" >       58 </v>
  <v type="int" >       53 </v>
  <v type="int" >      104 </v>
  <v type="int" >      113 </v>
  <v type="int" >       47 </v>
  <v type="int" >       35 </v>
  <v type="int" >       11 </v>
  <v type="int" >       12 </v>
  <v type="int" >       59 </v>
 </varray>
 <kpoints>
  <generation param="Gamma">
   <v type="int" name="divisions">       3        3        3 </v>
   <v name="usershift">      0.00000000       0.00000000       0.00000000 </v>
   <v name="genvec1">      0.33333333       0.00000000       0.00000000 </v>
   <v name="genvec2">     -0.00000000       0.33333333       0.00000000 </v>
   <v name="genvec3">      0.00000000       0.00000000       0.33333333 </v>
   <v name="shift">      0.00000000       0.00000000       0.00000000 </v>
  </generation>
  <varray name="kpointlist" >
   <v>       0.00000000       0.00000000       0.00000000 </v>
   <v>       0.33333333       0.00000000       0.00000000 </v>
   <v>       0.00000000       0.33333333       0.00000000 </v>
   <v>       0.33333333       0.33333333       0.00000000 </v>
   <v>      -0.33333333       0.33333333       0.00000000 </v>
   <v>       0.00000000       0.00000000       0.33333333 </v>
   <v>       0.33333333       0.00000000       0.33333333 </v>
   <v>      -0.33333333       0.00000000       0.33333333 </v>
   <v>       0.00000000       0.33333333       0.33333333 </v>
   <v>       0.33333333       0.33333333       0.33333333 </v>
   <v>      -0.33333333       0.33333333       0.33333333 </v>
   <v>      -0.00000000      -0.33333333       0.33333333 </v>
   <v>       0.33333333      -0.33333333       0.33333333 </v>
   <v>      -0.33333333      -0.33333333       0.33333333 </v>
  </varray>
  <varray name="weights" >
   <v>       0.03703704 </v>
   <v>       0.07407407 </v>
   <v>       0.07407407 </v>
   <v>       0.07407407 </v>
   <v>       0.07407407 </v>
   <v>       0.07407407 </v>
   <v>       0.07407407 </v>
   <v>       0.07407407 </v>
   <v>       0.07407407 </v>
   <v>       0.07407407 </v>
   <v>       0.07407407 </v>
   <v>       0.07407407 </v>
   <v>       0.07407407 </v>
   <v>       0.07407407 </v>
  </varray>
 </kpoints>
 <parameters>
  <separator name="general" >
   <i type="string" name="SYSTEM">unknown system</i>
   <i type="logical" name="LCOMPAT"> F  </i>
  </separator>
  <separator name="electronic" >
   <i type="string" name="PREC">accura</i>
   <i name="ENMAX">    650.00000000</i>
   <i name="ENAUG">    628.94500000</i>
   <i name="EDIFF">      0.00000100</i>
   <i type="int" name="IALGO">    38</i>
   <i type="int" name="IWAVPR">    10</i>
   <i type="int" name="NBANDS">   552</i>
   <i name="NELECT">    768.00000000</i>
   <i type="int" name="TURBO">     0</i>
   <i type="int" name="IRESTART">     0</i>
   <i type="int" name="NREBOOT">     0</i>
   <i type="int" name="NMIN">     0</i>
   <i name="EREF">      0.00000000</i>
   <separator name="electronic smearing" >
    <i type="int" name="ISMEAR">     0</i>
    <i name="SIGMA">      0.05000000</i>
    <i name="KSPACING">      0.50000000</i>
    <i type="logical" name="KGAMMA"> T  </i>
   </separator>
   <separator name="electronic projectors" >
    <i type="logical" name="LREAL"> F  </i>
    <v name="ROPT">      0.00000000      0.00000000      0.00000000      0.00000000</v>
    <i type="int" name="LMAXPAW">  -100</i>
    <i type="int" name="LMAXMIX">     4</i>
    <i type="logical" name="NLSPLINE"> F  </i>
   </separator>
   <separator name="electronic startup" >
    <i type="int" name="ISTART">     0</i>
    <i type="int" name="ICHARG">     1</i>
    <i type="int" name="INIWAV">     1</i>
   </separator>
   <separator name="electronic spin" >
    <i type="int" name="ISPIN">     2</i>
    <i type="logical" name="LNONCOLLINEAR"> F  </i>
    <v name="MAGMOM">      0.60000000      0.60000000      0.60000000      0.60000000      0.60000000      0.60000000      0.60000000      0.60000000      0.60000000      0.60000000      0.60000000      0.60000000      0.60000000      0.60000000      0.60000000      0.60000000      0.60000000      0.60000000      0.60000000      0.60000000
      0.60000000      0.60000000      0.60000000      0.60000000      0.60000000      0.60000000      0.60000000      0.60000000      0.60000000      0.60000000      0.60000000      0.60000000      0.60000000      0.60000000      0.60000000      0.60000000      0.60000000      0.60000000      0.60000000      0.60000000
      0.60000000      0.60000000      0.60000000      0.60000000      0.60000000      0.60000000      0.60000000      0.60000000      0.60000000      0.60000000      0.60000000      0.60000000      0.60000000      0.60000000      0.60000000      0.60000000      0.60000000      0.60000000      0.60000000      0.60000000
      0.60000000      0.60000000      0.60000000      0.60000000      0.60000000      0.60000000      0.60000000      0.60000000      0.60000000      0.60000000      0.60000000      0.60000000      0.60000000      0.60000000      0.60000000      0.60000000      0.60000000      0.60000000      0.60000000      0.60000000
      0.60000000      0.60000000      0.60000000      0.60000000      0.60000000      0.60000000      0.60000000      0.60000000      0.60000000      0.60000000      0.60000000      0.60000000      0.60000000      0.60000000      0.60000000      0.60000000      5.00000000      5.00000000      5.00000000      5.00000000
      5.00000000      5.00000000      5.00000000      5.00000000      5.00000000      5.00000000      5.00000000      5.00000000      5.00000000      5.00000000      5.00000000      5.00000000      5.00000000      5.00000000      5.00000000      5.00000000      5.00000000      5.00000000      5.00000000      5.00000000
</v>
    <i name="NUPDOWN">     -1.00000000</i>
    <i type="logical" name="LSORBIT"> F  </i>
    <v name="SAXIS">      0.00000000      0.00000000      1.00000000</v>
    <i type="logical" name="LSPIRAL"> F  </i>
    <v name="QSPIRAL">      0.00000000      0.00000000      0.00000000</v>
    <i type="logical" name="LZEROZ"> F  </i>
   </separator>
   <separator name="electronic exchange-correlation" >
    <i type="logical" name="LASPH"> T  </i>
    <i type="logical" name="LMETAGGA"> F  </i>
   </separator>
   <separator name="electronic convergence" >
    <i type="int" name="NELM">   200</i>
    <i type="int" name="NELMDL">     0</i>
    <i type="int" name="NELMIN">     8</i>
    <i name="ENINI">    650.00000000</i>
    <separator name="electronic convergence detail" >
     <i type="logical" name="LDIAG"> T  </i>
     <i type="logical" name="LSUBROT"> F  </i>
     <i name="WEIMIN">      0.00000000</i>
     <i name="EBREAK">      0.00000000</i>
     <i name="DEPER">      0.30000000</i>
     <i type="int" name="NRMM">     4</i>
     <i name="TIME">      0.40000000</i>
    </separator>
   </separator>
   <separator name="electronic mixer" >
    <i name="AMIX">      0.40000000</i>
    <i name="BMIX">      1.00000000</i>
    <i name="AMIN">      0.10000000</i>
    <i name="AMIX_MAG">      1.60000000</i>
    <i name="BMIX_MAG">      1.00000000</i>
    <separator name="electronic mixer details" >
     <i type="int" name="IMIX">     4</i>
     <i type="logical" name="MIXFIRST"> F  </i>
     <i type="int" name="MAXMIX">   -45</i>
     <i name="WC">    100.00000000</i>
     <i type="int" name="INIMIX">     1</i>
     <i type="int" name="MIXPRE">     1</i>
     <i type="int" name="MREMOVE">     5</i>
    </separator>
   </separator>
   <separator name="electronic dipolcorrection" >
    <i type="logical" name="LDIPOL"> F  </i>
    <i type="logical" name="LMONO"> F  </i>
    <i type="int" name="IDIPOL">     0</i>
    <i name="EPSILON">      1.00000000</i>
    <v name="DIPOL">   -100.00000000   -100.00000000   -100.00000000</v>
    <i name="EFIELD">      0.00000000</i>
   </separator>
  </separator>
  <separator name="grids" >
   <i type="int" name="NGX">    98</i>
   <i type="int" name="NGY">    96</i>
   <i type="int" name="NGZ">    96</i>
   <i type="int" name="NGXF">   196</i>
   <i type="int" name="NGYF">   192</i>
   <i type="int" name="NGZF">   192</i>
   <i type="logical" name="ADDGRID"> T  </i>
  </separator>
  <separator name="ionic" >
   <i type="int" name="NSW">     0</i>
   <i type="int" name="IBRION">    -1</i>
   <i type="int" name="MDALGO">     0</i>
   <i type="int" name="ISIF">     3</i>
   <i name="PSTRESS">      0.00000000</i>
   <i name="EDIFFG">      0.00001000</i>
   <i type="int" name="NFREE">     0</i>
   <i name="POTIM">      0.50000000</i>
   <i name="SMASS">     -3.00000000</i>
   <i name="SCALEE">      1.00000000</i>
  </separator>
  <separator name="ionic md" >
   <i name="TEBEG">      0.00010000</i>
   <i name="TEEND">      0.00010000</i>
   <i type="int" name="NBLOCK">     1</i>
   <i type="int" name="KBLOCK">     1</i>
   <i type="int" name="NPACO">   256</i>
   <i name="APACO">     16.00000000</i>
  </separator>
  <separator name="symmetry" >
   <i type="int" name="ISYM">     0</i>
   <i name="SYMPREC">      0.00001000</i>
  </separator>
  <separator name="dos" >
   <i type="int" name="LORBIT">     0</i>
   <v name="RWIGS">     -1.00000000     -1.00000000     -1.00000000     -1.00000000</v>
   <i type="int" name="NEDOS">   301</i>
   <i name="EMIN">     10.00000000</i>
   <i name="EMAX">    -10.00000000</i>
   <i name="EFERMI">      0.00000000</i>
  </separator>
  <separator name="writing" >
   <i type="int" name="NWRITE">     1</i>
   <i type="logical" name="LWAVE"> F  </i>
   <i type="logical" name="LDOWNSAMPLE"> F  </i>
   <i type="logical" name="LCHARG"> T  </i>
   <i type="logical" name="LPARD"> F  </i>
   <i type="logical" name="LVTOT"> F  </i>
   <i type="logical" name="LVHAR"> F  </i>
   <i type="logical" name="LELF"> F  </i>
   <i type="logical" name="LOPTICS"> F  </i>
   <v name="STM">      0.00000000      0.00000000      0.00000000      0.00000000      0.00000000      0.00000000      0.00000000</v>
  </separator>
  <separator name="performance" >
   <i type="int" name="NPAR">     4</i>
   <i type="int" name="NSIM">     4</i>
   <i type="int" name="NBLK">    -1</i>
   <i type="logical" name="LPLANE"> T  </i>
   <i type="logical" name="LSCALAPACK"> T  </i>
   <i type="logical" name="LSCAAWARE"> F  </i>
   <i type="logical" name="LSCALU"> F  </i>
   <i type="logical" name="LASYNC"> F  </i>
   <i type="logical" name="LORBITALREAL"> F  </i>
  </separator>
  <separator name="miscellaneous" >
   <i type="int" name="IDIOT">     3</i>
   <i type="int" name="ISPECIAL">     0</i>
   <i type="logical" name="LMUSIC"> F  </i>
   <v name="POMASS">      7.01000000     16.00000000     32.06600000     55.84700000</v>
   <v name="DARWINR">      0.00000000      0.00000000      0.00000000      0.00000000</v>
   <v name="DARWINV">      1.00000000      1.00000000      1.00000000      1.00000000</v>
   <i type="logical" name="LCORR"> T  </i>
  </separator>
  <i type="logical" name="GGA_COMPAT"> T  </i>
  <i type="logical" name="LBERRY"> F  </i>
  <i type="int" name="ICORELEVEL">     0</i>
  <i type="logical" name="LDAU"> T  </i>
  <v type="int" name="LDAUTYPE">     2</v>
  <v type="int" name="LDAUL">    -1</v>
  <v name="LDAUU">      0.00000000</v>
  <v name="LDAUJ">      0.00000000</v>
  <i type="int" name="LDAUPRINT">     0</i>
  <i type="int" name="I_CONSTRAINED_M">     0</i>
  <separator name="electronic exchange-correlation" >
   <i type="string" name="GGA">PE</i>
   <i type="int" name="VOSKOWN">     0</i>
   <i type="logical" name="LHFCALC"> F  </i>
   <i type="string" name="PRECFOCK"></i>
   <i type="logical" name="LSYMGRAD"> F  </i>
   <i type="logical" name="LHFONE"> F  </i>
   <i type="logical" name="LRHFCALC"> F  </i>
   <i type="logical" name="LTHOMAS"> F  </i>
   <i type="logical" name="LMODELHF"> F  </i>
   <i name="ENCUT4O">     -1.00000000</i>
   <i type="int" name="EXXOEP">     0</i>
   <i type="int" name="FOURORBIT">     0</i>
   <i name="AEXX">      0.00000000</i>
   <i name="HFALPHA">      0.00000000</i>
   <i name="MCALPHA">      0.00000000</i>
   <i name="ALDAX">      1.00000000</i>
   <i name="AGGAX">      1.00000000</i>
   <i name="ALDAC">      1.00000000</i>
   <i name="AGGAC">      1.00000000</i>
   <i type="int" name="NKREDX">     1</i>
   <i type="int" name="NKREDY">     1</i>
   <i type="int" name="NKREDZ">     1</i>
   <i type="logical" name="SHIFTRED"> F  </i>
   <i type="logical" name="ODDONLY"> F  </i>
   <i type="logical" name="EVENONLY"> F  </i>
   <i type="int" name="LMAXFOCK">     0</i>
   <i type="int" name="NMAXFOCKAE">     0</i>
   <i type="logical" name="LFOCKAEDFT"> F  </i>
   <i name="HFSCREEN">      0.00000000</i>
   <i name="HFSCREENC">      0.00000000</i>
   <i type="int" name="NBANDSGWLOW">     0</i>
  </separator>
  <separator name="vdW DFT" >
   <i type="logical" name="LUSE_VDW"> F  </i>
   <i name="Zab_VDW">     -0.84910000</i>
   <i name="PARAM1">      0.12340000</i>
   <i name="PARAM2">      1.00000000</i>
   <i name="PARAM3">      0.00000000</i>
  </separator>
  <separator name="model GW" >
   <i type="int" name="MODEL_GW">     0</i>
   <i name="MODEL_EPS0">      7.36999089</i>
   <i name="MODEL_ALPHA">      1.00000000</i>
  </separator>
  <separator name="linear response parameters" >
   <i type="logical" name="LEPSILON"> F  </i>
   <i type="logical" name="LRPA"> F  </i>
   <i type="logical" name="LNABLA"> F  </i>
   <i type="logical" name="LVEL"> F  </i>
   <i type="int" name="KINTER">     0</i>
   <i name="CSHIFT">      0.10000000</i>
   <i name="OMEGAMAX">     -1.00000000</i>
   <i name="DEG_THRESHOLD">      0.00200000</i>
   <i name="RTIME">     -0.10000000</i>
   <i name="WPLASMAI">      0.00000000</i>
   <v name="DFIELD">      0.00000000      0.00000000      0.00000000</v>
   <v name="WPLASMA">      0.00000000      0.00000000      0.00000000      0.00000000      0.00000000      0.00000000      0.00000000      0.00000000      0.00000000</v>
  </separator>
  <separator name="orbital magnetization" >
   <i type="logical" name="NUCIND"> F  </i>
   <v name="MAGPOS">      0.00000000      0.00000000      0.00000000</v>
   <i type="logical" name="LNICSALL"> T  </i>
   <i type="logical" name="ORBITALMAG"> F  </i>
   <i type="logical" name="LMAGBLOCH"> F  </i>
   <i type="logical" name="LCHIMAG"> F  </i>
   <i type="logical" name="LGAUGE"> T  </i>
   <i type="int" name="MAGATOM">     0</i>
   <v name="MAGDIPOL">      0.00000000      0.00000000      0.00000000</v>
   <v name="AVECCONST">      0.00000000      0.00000000      0.00000000</v>
  </separator>
  <separator name="response functions" >
   <i type="logical" name="LADDER"> F  </i>
   <i type="logical" name="LRPAFORCE"> F  </i>
   <i type="logical" name="LFXC"> F  </i>
   <i type="logical" name="LHARTREE"> T  </i>
   <i type="int" name="IBSE">     0</i>
   <v type="int" name="KPOINT">    -1     0     0     0</v>
   <i type="logical" name="LTCTE"> F  </i>
   <i type="logical" name="LTETE"> F  </i>
   <i type="logical" name="LTRIPLET"> F  </i>
   <i type="logical" name="LFXCEPS"> F  </i>
   <i type="logical" name="LFXHEG"> F  </i>
   <i type="int" name="NATURALO">     2</i>
   <i type="logical" name="L2ORDER"> F  </i>
   <i type="logical" name="LMP2LT"> F  </i>
   <i type="logical" name="LUSEW"> F  </i>
   <i name="ENCUTGW">     -2.00000000</i>
   <i name="ENCUTGWSOFT">     -2.00000000</i>
   <i name="ENCUTLF">     -1.00000000</i>
   <i type="int" name="LMAXMP2">    -1</i>
   <i name="SCISSOR">      0.00000000</i>
   <i type="int" name="NOMEGA">     0</i>
   <i type="int" name="NOMEGAR">     0</i>
   <i type="int" name="NBANDSGW">    -1</i>
   <i type="int" name="NBANDSO">    -1</i>
   <i type="int" name="NBANDSV">    -1</i>
   <i type="int" name="NELM">   200</i>
   <i type="int" name="NELMHF">     1</i>
   <i type="int" name="DIM">     3</i>
   <i type="int" name="ANTIRES">     0</i>
   <i name="OMEGAMAX">    -30.00000000</i>
   <i name="OMEGAMIN">    -30.00000000</i>
   <i name="OMEGATL">   -200.00000000</i>
   <i type="int" name="OMEGAGRID">   140</i>
   <i name="CSHIFT">     -0.10000000</i>
   <i type="logical" name="SELFENERGY"> F  </i>
   <i type="logical" name="LSPECTRAL"> F  </i>
   <i type="logical" name="LSPECTRALGW"> F  </i>
   <i type="logical" name="LSINGLES"> F  </i>
   <i type="logical" name="LFERMIGW"> F  </i>
   <i type="logical" name="ODDONLYGW"> F  </i>
   <i type="logical" name="EVENONLYGW"> F  </i>
   <i type="int" name="NKREDLFX">     1</i>
   <i type="int" name="NKREDLFY">     1</i>
   <i type="int" name="NKREDLFZ">     1</i>
   <i type="int" name="MAXMEM">  2800</i>
   <i type="int" name="TELESCOPE">     0</i>
   <i type="int" name="TAUPAR">     1</i>
   <i type="int" name="OMEGAPAR">    -1</i>
   <i name="LAMBDA">      1.00000000</i>
  </separator>
  <separator name="External order field" >
   <i name="OFIELD_KAPPA">      0.00000000</i>
   <v name="OFIELD_K">      0.00000000      0.00000000      0.00000000</v>
   <i name="OFIELD_Q6_NEAR">      0.00000000</i>
   <i name="OFIELD_Q6_FAR">      0.00000000</i>
   <i name="OFIELD_A">      0.00000000</i>
  </separator>
 </parameters>
 <atominfo>
  <atoms>     120 </atoms>
  <types>       4 </types>
  <array name="atoms" >
   <dimension dim="1">ion</dimension>
   <field type="string">element</field>
   <field type="int">atomtype</field>
   <set>
    <rc><c>Li</c><c>   1</c></rc>
    <rc><c>Li</c><c>   1</c></rc>
    <rc><c>Li</c><c>   1</c></rc>
    <rc><c>Li</c><c>   1</c></rc>
    <rc><c>Li</c><c>   1</c></rc>
    <rc><c>Li</c><c>   1</c></rc>
    <rc><c>Li</c><c>   1</c></rc>
    <rc><c>Li</c><c>   1</c></rc>
    <rc><c>Li</c><c>   1</c></rc>
    <rc><c>Li</c><c>   1</c></rc>
    <rc><c>Li</c><c>   1</c></rc>
    <rc><c>Li</c><c>   1</c></rc>
    <rc><c>Li</c><c>   1</c></rc>
    <rc><c>Li</c><c>   1</c></rc>
    <rc><c>Li</c><c>   1</c></rc>
    <rc><c>Li</c><c>   1</c></rc>
    <rc><c>Li</c><c>   1</c></rc>
    <rc><c>Li</c><c>   1</c></rc>
    <rc><c>Li</c><c>   1</c></rc>
    <rc><c>Li</c><c>   1</c></rc>
    <rc><c>Li</c><c>   1</c></rc>
    <rc><c>Li</c><c>   1</c></rc>
    <rc><c>Li</c><c>   1</c></rc>
    <rc><c>Li</c><c>   1</c></rc>
    <rc><c>Li</c><c>   1</c></rc>
    <rc><c>Li</c><c>   1</c></rc>
    <rc><c>Li</c><c>   1</c></rc>
    <rc><c>Li</c><c>   1</c></rc>
    <rc><c>Li</c><c>   1</c></rc>
    <rc><c>Li</c><c>   1</c></rc>
    <rc><c>Li</c><c>   1</c></rc>
    <rc><c>Li</c><c>   1</c></rc>
    <rc><c>Li</c><c>   1</c></rc>
    <rc><c>Li</c><c>   1</c></rc>
    <rc><c>Li</c><c>   1</c></rc>
    <rc><c>Li</c><c>   1</c></rc>
    <rc><c>Li</c><c>   1</c></rc>
    <rc><c>Li</c><c>   1</c></rc>
    <rc><c>Li</c><c>   1</c></rc>
    <rc><c>Li</c><c>   1</c></rc>
    <rc><c>Li</c><c>   1</c></rc>
    <rc><c>Li</c><c>   1</c></rc>
    <rc><c>Li</c><c>   1</c></rc>
    <rc><c>Li</c><c>   1</c></rc>
    <rc><c>Li</c><c>   1</c></rc>
    <rc><c>Li</c><c>   1</c></rc>
    <rc><c>Li</c><c>   1</c></rc>
    <rc><c>Li</c><c>   1</c></rc>
    <rc><c>O </c><c>   2</c></rc>
    <rc><c>O </c><c>   2</c></rc>
    <rc><c>O </c><c>   2</c></rc>
    <rc><c>O </c><c>   2</c></rc>
    <rc><c>O </c><c>   2</c></rc>
    <rc><c>O </c><c>   2</c></rc>
    <rc><c>O </c><c>   2</c></rc>
    <rc><c>O </c><c>   2</c></rc>
    <rc><c>O </c><c>   2</c></rc>
    <rc><c>O </c><c>   2</c></rc>
    <rc><c>O </c><c>   2</c></rc>
    <rc><c>O </c><c>   2</c></rc>
    <rc><c>O </c><c>   2</c></rc>
    <rc><c>O </c><c>   2</c></rc>
    <rc><c>O </c><c>   2</c></rc>
    <rc><c>O </c><c>   2</c></rc>
    <rc><c>O </c><c>   2</c></rc>
    <rc><c>O </c><c>   2</c></rc>
    <rc><c>O </c><c>   2</c></rc>
    <rc><c>O </c><c>   2</c></rc>
    <rc><c>O </c><c>   2</c></rc>
    <rc><c>O </c><c>   2</c></rc>
    <rc><c>O </c><c>   2</c></rc>
    <rc><c>O </c><c>   2</c></rc>
    <rc><c>S </c><c>   3</c></rc>
    <rc><c>S </c><c>   3</c></rc>
    <rc><c>S </c><c>   3</c></rc>
    <rc><c>S </c><c>   3</c></rc>
    <rc><c>S </c><c>   3</c></rc>
    <rc><c>S </c><c>   3</c></rc>
    <rc><c>S </c><c>   3</c></rc>
    <rc><c>S </c><c>   3</c></rc>
    <rc><c>S </c><c>   3</c></rc>
    <rc><c>S </c><c>   3</c></rc>
    <rc><c>S </c><c>   3</c></rc>
    <rc><c>S </c><c>   3</c></rc>
    <rc><c>S </c><c>   3</c></rc>
    <rc><c>S </c><c>   3</c></rc>
    <rc><c>S </c><c>   3</c></rc>
    <rc><c>S </c><c>   3</c></rc>
    <rc><c>S </c><c>   3</c></rc>
    <rc><c>S </c><c>   3</c></rc>
    <rc><c>S </c><c>   3</c></rc>
    <rc><c>S </c><c>   3</c></rc>
    <rc><c>S </c><c>   3</c></rc>
    <rc><c>S </c><c>   3</c></rc>
    <rc><c>S </c><c>   3</c></rc>
    <rc><c>S </c><c>   3</c></rc>
    <rc><c>Fe</c><c>   4</c></rc>
    <rc><c>Fe</c><c>   4</c></rc>
    <rc><c>Fe</c><c>   4</c></rc>
    <rc><c>Fe</c><c>   4</c></rc>
    <rc><c>Fe</c><c>   4</c></rc>
    <rc><c>Fe</c><c>   4</c></rc>
    <rc><c>Fe</c><c>   4</c></rc>
    <rc><c>Fe</c><c>   4</c></rc>
    <rc><c>Fe</c><c>   4</c></rc>
    <rc><c>Fe</c><c>   4</c></rc>
    <rc><c>Fe</c><c>   4</c></rc>
    <rc><c>Fe</c><c>   4</c></rc>
    <rc><c>Fe</c><c>   4</c></rc>
    <rc><c>Fe</c><c>   4</c></rc>
    <rc><c>Fe</c><c>   4</c></rc>
    <rc><c>Fe</c><c>   4</c></rc>
    <rc><c>Fe</c><c>   4</c></rc>
    <rc><c>Fe</c><c>   4</c></rc>
    <rc><c>Fe</c><c>   4</c></rc>
    <rc><c>Fe</c><c>   4</c></rc>
    <rc><c>Fe</c><c>   4</c></rc>
    <rc><c>Fe</c><c>   4</c></rc>
    <rc><c>Fe</c><c>   4</c></rc>
    <rc><c>Fe</c><c>   4</c></rc>
   </set>
  </array>
  <array name="atomtypes" >
   <dimension dim="1">type</dimension>
   <field type="int">atomspertype</field>
   <field type="string">element</field>
   <field>mass</field>
   <field>valence</field>
   <field type="string">pseudopotential</field>
   <set>
    <rc><c>  48</c><c>Li</c><c>      7.01000000</c><c>      3.00000000</c><c>  PAW_PBE Li_sv 10Sep2004               </c></rc>
    <rc><c>  24</c><c>O </c><c>     16.00000000</c><c>      6.00000000</c><c>  PAW_PBE O 08Apr2002                   </c></rc>
    <rc><c>  24</c><c>S </c><c>     32.06600000</c><c>      6.00000000</c><c>  PAW_PBE S 06Sep2000                   </c></rc>
    <rc><c>  24</c><c>Fe</c><c>     55.84700000</c><c>     14.00000000</c><c>  PAW_PBE Fe_pv 02Aug2007               </c></rc>
   </set>
  </array>
 </atominfo>
 <structure name="initialpos" >
  <crystal>
   <varray name="basis" >
    <v>      11.73572724      -0.05744286       0.00000000 </v>
    <v>       0.05480788      11.21833490       0.00000000 </v>
    <v>       0.00000000       0.00000000      11.19562010 </v>
   </varray>
   <i name="volume">   1473.99817718 </i>
   <varray name="rec_basis" >
    <v>       0.08520785      -0.00041629       0.00000000 </v>
    <v>       0.00043630       0.08913766       0.00000000 </v>
    <v>       0.00000000       0.00000000       0.08932064 </v>
   </varray>
  </crystal>
  <varray name="positions" >
   <v>       0.03541706       0.36277547       0.35737469 </v>
   <v>       0.36875039       0.36277547       0.35648149 </v>
   <v>       0.70208372       0.36277547       0.35648149 </v>
   <v>       0.03541706       0.86277547       0.35648149 </v>
   <v>       0.36875039       0.86277547       0.35648149 </v>
   <v>       0.70208372       0.86277547       0.35648149 </v>
   <v>       0.03541706       0.36277547       0.85648149 </v>
   <v>       0.36875039       0.36277547       0.85648149 </v>
   <v>       0.70208372       0.36277547       0.85648149 </v>
   <v>       0.03541706       0.86277547       0.85648149 </v>
   <v>       0.36875039       0.86277547       0.85648149 </v>
   <v>       0.70208372       0.86277547       0.85648149 </v>
   <v>       0.03541706       0.11277547       0.14351851 </v>
   <v>       0.36875039       0.11277547       0.14351851 </v>
   <v>       0.70208372       0.11277547       0.14351851 </v>
   <v>       0.03541706       0.61277547       0.14351851 </v>
   <v>       0.36875039       0.61277547       0.14351851 </v>
   <v>       0.70208372       0.61277547       0.14351851 </v>
   <v>       0.03541706       0.11277547       0.64351851 </v>
   <v>       0.36875039       0.11277547       0.64351851 </v>
   <v>       0.70208372       0.11277547       0.64351851 </v>
   <v>       0.03541706       0.61277547       0.64351851 </v>
   <v>       0.36875039       0.61277547       0.64351851 </v>
   <v>       0.70208372       0.61277547       0.64351851 </v>
   <v>       0.20209458       0.21898060       0.27246215 </v>
   <v>       0.53542792       0.21898060       0.27246215 </v>
   <v>       0.86876125       0.21898060       0.27246215 </v>
   <v>       0.20209458       0.71898060       0.27246215 </v>
   <v>       0.53542792       0.71898060       0.27246215 </v>
   <v>       0.86876125       0.71898060       0.27246215 </v>
   <v>       0.20209458       0.21898060       0.77246215 </v>
   <v>       0.53542792       0.21898060       0.77246215 </v>
   <v>       0.86876125       0.21898060       0.77246215 </v>
   <v>       0.20209458       0.71898060       0.77246215 </v>
   <v>       0.53542792       0.71898060       0.77246215 </v>
   <v>       0.86876125       0.71898060       0.77246215 </v>
   <v>       0.20209458       0.46898060       0.22753785 </v>
   <v>       0.53542792       0.46898060       0.22753785 </v>
   <v>       0.86876125       0.46898060       0.22753785 </v>
   <v>       0.20209458       0.96898060       0.22753785 </v>
   <v>       0.53542792       0.96898060       0.22753785 </v>
   <v>       0.86876125       0.96898060       0.22753785 </v>
   <v>       0.20209458       0.46898060       0.72753785 </v>
   <v>       0.53542792       0.46898060       0.72753785 </v>
   <v>       0.86876125       0.46898060       0.72753785 </v>
   <v>       0.20209458       0.96898060       0.72753785 </v>
   <v>       0.53542792       0.96898060       0.72753785 </v>
   <v>       0.86876125       0.96898060       0.72753785 </v>
   <v>       0.20209064       0.36769237       0.37376509 </v>
   <v>       0.53542398       0.36769237       0.37376509 </v>
   <v>       0.86875731       0.36769237       0.37376509 </v>
   <v>       0.20209064       0.86769237       0.37376509 </v>
   <v>       0.53542398       0.86769237       0.37376509 </v>
   <v>       0.86875731       0.86769237       0.37376509 </v>
   <v>       0.20209064       0.36769237       0.87376509 </v>
   <v>       0.53542398       0.36769237       0.87376509 </v>
   <v>       0.86875731       0.36769237       0.87376509 </v>
   <v>       0.20209064       0.86769237       0.87376509 </v>
   <v>       0.53542398       0.86769237       0.87376509 </v>
   <v>       0.86875731       0.86769237       0.87376509 </v>
   <v>       0.20209064       0.11769237       0.12623491 </v>
   <v>       0.53542398       0.11769237       0.12623491 </v>
   <v>       0.86875731       0.11769237       0.12623491 </v>
   <v>       0.20209064       0.61769237       0.12623491 </v>
   <v>       0.53542398       0.61769237       0.12623491 </v>
   <v>       0.86875731       0.61769237       0.12623491 </v>
   <v>       0.20209064       0.11769237       0.62623491 </v>
   <v>       0.53542398       0.11769237       0.62623491 </v>
   <v>       0.86875731       0.11769237       0.62623491 </v>
   <v>       0.20209064       0.61769237       0.62623491 </v>
   <v>       0.53542398       0.61769237       0.62623491 </v>
   <v>       0.86875731       0.61769237       0.62623491 </v>
   <v>       0.03542751       0.37011947       0.12029448 </v>
   <v>       0.36876084       0.37011947       0.12029448 </v>
   <v>       0.70209418       0.37011947       0.12029448 </v>
   <v>       0.03542751       0.87011947       0.12029448 </v>
   <v>       0.36876084       0.87011947       0.12029448 </v>
   <v>       0.70209418       0.87011947       0.12029448 </v>
   <v>       0.03542751       0.37011947       0.62029448 </v>
   <v>       0.36876084       0.37011947       0.62029448 </v>
   <v>       0.70209418       0.37011947       0.62029448 </v>
   <v>       0.03542751       0.87011947       0.62029448 </v>
   <v>       0.36876084       0.87011947       0.62029448 </v>
   <v>       0.70209418       0.87011947       0.62029448 </v>
   <v>       0.03542751       0.12011947       0.37970552 </v>
   <v>       0.36876084       0.12011947       0.37970552 </v>
   <v>       0.70209418       0.12011947       0.37970552 </v>
   <v>       0.03542751       0.62011947       0.37970552 </v>
   <v>       0.36876084       0.62011947       0.37970552 </v>
   <v>       0.70209418       0.62011947       0.37970552 </v>
   <v>       0.03542751       0.12011947       0.87970552 </v>
   <v>       0.36876084       0.12011947       0.87970552 </v>
   <v>       0.70209418       0.12011947       0.87970552 </v>
   <v>       0.03542751       0.62011947       0.87970552 </v>
   <v>       0.36876084       0.62011947       0.87970552 </v>
   <v>       0.70209418       0.62011947       0.87970552 </v>
   <v>       0.20209387       0.01225309       0.48003463 </v>
   <v>       0.53542720       0.01225309       0.48003463 </v>
   <v>       0.86876054       0.01225309       0.48003463 </v>
   <v>       0.20209387       0.51225309       0.48003463 </v>
   <v>       0.53542720       0.51225309       0.48003463 </v>
   <v>       0.86876054       0.51225309       0.48003463 </v>
   <v>       0.20209387       0.01225309       0.98003463 </v>
   <v>       0.53542720       0.01225309       0.98003463 </v>
   <v>       0.86876054       0.01225309       0.98003463 </v>
   <v>       0.20209387       0.51225309       0.98003463 </v>
   <v>       0.53542720       0.51225309       0.98003463 </v>
   <v>       0.86876054       0.51225309       0.98003463 </v>
   <v>       0.20209387       0.26225309       0.01996537 </v>
   <v>       0.53542720       0.26225309       0.01996537 </v>
   <v>       0.86876054       0.26225309       0.01996537 </v>
   <v>       0.20209387       0.76225309       0.01996537 </v>
   <v>       0.53542720       0.76225309       0.01996537 </v>
   <v>       0.86876054       0.76225309       0.01996537 </v>
   <v>       0.20209387       0.26225309       0.51996537 </v>
   <v>       0.53542720       0.26225309       0.51996537 </v>
   <v>       0.86876054       0.26225309       0.51996537 </v>
   <v>       0.20209387       0.76225309       0.51996537 </v>
   <v>       0.53542720       0.76225309       0.51996537 </v>
   <v>       0.86876054       0.76225309       0.51996537 </v>
  </varray>
 </structure>
 <calculation>
  <scstep>
   <time name="dav">  218.12  220.38</time>
   <time name="total">  219.92  222.40</time>
   <energy>
    <i name="alphaZ">   1915.67052055 </i>
    <i name="ewald"> -48531.53669905 </i>
    <i name="hartreedc"> -28983.94260974 </i>
    <i name="XCdc">   3297.26653885 </i>
    <i name="pawpsdc">  81710.32686745 </i>
    <i name="pawaedc"> -84426.12035439 </i>
    <i name="eentropy">     -0.01834886 </i>
    <i name="bandstr">   -670.23319946 </i>
    <i name="atom">  85731.96378919 </i>
    <i name="e_fr_energy">  10043.37650454 </i>
    <i name="e_wo_entrp">  10043.39485341 </i>
    <i name="e_0_energy">  10043.38567898 </i>
   </energy>
  </scstep>
  <scstep>
   <time name="dav">  212.19  214.52</time>
   <time name="total">  212.19  214.52</time>
   <energy>
    <i name="e_fr_energy">   1037.04639303 </i>
    <i name="e_wo_entrp">   1037.09862854 </i>
    <i name="e_0_energy">   1037.07251079 </i>
   </energy>
  </scstep>
  <scstep>
   <time name="dav">  229.26  232.02</time>
   <time name="total">  229.26  232.02</time>
   <energy>
    <i name="e_fr_energy">   -399.90280798 </i>
    <i name="e_wo_entrp">   -399.90280798 </i>
    <i name="e_0_energy">   -399.90280798 </i>
   </energy>
  </scstep>
  <scstep>
   <time name="dav">  261.20  264.18</time>
   <time name="total">  261.20  264.18</time>
   <energy>
    <i name="e_fr_energy">   -590.30189362 </i>
    <i name="e_wo_entrp">   -590.30189362 </i>
    <i name="e_0_energy">   -590.30189362 </i>
   </energy>
  </scstep>
  <scstep>
   <time name="dav">  329.55  332.48</time>
   <time name="total">  335.17  338.17</time>
   <energy>
    <i name="e_fr_energy">   -615.44541940 </i>
    <i name="e_wo_entrp">   -615.44541940 </i>
    <i name="e_0_energy">   -615.44541940 </i>
   </energy>
  </scstep>
  <scstep>
   <time name="dav">  267.41  270.12</time>
   <time name="total">  274.93  277.77</time>
   <energy>
    <i name="e_fr_energy">   -616.38694195 </i>
    <i name="e_wo_entrp">   -616.38694195 </i>
    <i name="e_0_energy">   -616.38694195 </i>
   </energy>
  </scstep>
  <scstep>
   <time name="dav">  304.04  307.17</time>
   <time name="total">  311.51  314.76</time>
   <energy>
    <i name="e_fr_energy">   -616.43552472 </i>
    <i name="e_wo_entrp">   -616.43552472 </i>
    <i name="e_0_energy">   -616.43552472 </i>
   </energy>
  </scstep>
  <scstep>
   <time name="dav">  292.81  295.45</time>
   <time name="total">  300.34  302.99</time>
   <energy>
    <i name="e_fr_energy">   -616.43569475 </i>
    <i name="e_wo_entrp">   -616.43569475 </i>
    <i name="e_0_energy">   -616.43569475 </i>
   </energy>
  </scstep>
  <scstep>
   <time name="dav">  303.70  306.44</time>
   <time name="total">  311.24  314.09</time>
   <energy>
    <i name="e_fr_energy">   -616.43506420 </i>
    <i name="e_wo_entrp">   -616.43506420 </i>
    <i name="e_0_energy">   -616.43506420 </i>
   </energy>
  </scstep>
  <scstep>
   <time name="dav">  298.30  301.45</time>
   <time name="total">  305.86  309.04</time>
   <energy>
    <i name="e_fr_energy">   -616.43514698 </i>
    <i name="e_wo_entrp">   -616.43514698 </i>
    <i name="e_0_energy">   -616.43514698 </i>
   </energy>
  </scstep>
  <scstep>
   <time name="dav">  205.75  207.88</time>
   <time name="total">  213.30  215.52</time>
   <energy>
    <i name="e_fr_energy">   -616.43505942 </i>
    <i name="e_wo_entrp">   -616.43505942 </i>
    <i name="e_0_energy">   -616.43505942 </i>
   </energy>
  </scstep>
  <scstep>
   <time name="dav">  195.38  197.02</time>
   <time name="total">  203.08  204.78</time>
   <energy>
    <i name="e_fr_energy">   -616.43533505 </i>
    <i name="e_wo_entrp">   -616.43533505 </i>
    <i name="e_0_energy">   -616.43533505 </i>
   </energy>
  </scstep>
  <scstep>
   <time name="dav">  325.99  329.20</time>
   <time name="total">  333.81  337.06</time>
   <energy>
    <i name="e_fr_energy">   -616.43210119 </i>
    <i name="e_wo_entrp">   -616.43210119 </i>
    <i name="e_0_energy">   -616.43210119 </i>
   </energy>
  </scstep>
  <scstep>
   <time name="dav">  229.25  231.88</time>
   <time name="total">  236.87  239.59</time>
   <energy>
    <i name="e_fr_energy">   -616.43230653 </i>
    <i name="e_wo_entrp">   -616.43230653 </i>
    <i name="e_0_energy">   -616.43230653 </i>
   </energy>
  </scstep>
  <scstep>
   <time name="dav">  226.82  229.17</time>
   <time name="total">  234.66  237.07</time>
   <energy>
    <i name="e_fr_energy">   -616.43235358 </i>
    <i name="e_wo_entrp">   -616.43235358 </i>
    <i name="e_0_energy">   -616.43235358 </i>
   </energy>
  </scstep>
  <scstep>
   <time name="dav">  199.74  201.66</time>
   <time name="total">  207.44  209.43</time>
   <energy>
    <i name="e_fr_energy">   -616.43233383 </i>
    <i name="e_wo_entrp">   -616.43233383 </i>
    <i name="e_0_energy">   -616.43233383 </i>
   </energy>
  </scstep>
  <scstep>
   <time name="dav">  195.58  197.48</time>
   <time name="total">  197.52  199.48</time>
   <energy>
    <i name="alphaZ">   1915.67052055 </i>
    <i name="ewald"> -48531.53669905 </i>
    <i name="hartreedc"> -28984.09436647 </i>
    <i name="XCdc">   3297.26029980 </i>
    <i name="pawpsdc">  81672.89524640 </i>
    <i name="pawaedc"> -84388.12900461 </i>
    <i name="eentropy">     -0.00000000 </i>
    <i name="bandstr"> -11330.46212044 </i>
    <i name="atom">  85731.96378919 </i>
    <i name="e_fr_energy">   -616.43233462 </i>
    <i name="e_wo_entrp">   -616.43233462 </i>
    <i name="e_0_energy">   -616.43233462 </i>
   </energy>
  </scstep>
  <structure>
   <crystal>
    <varray name="basis" >
     <v>      11.73572724      -0.05744286       0.00000000 </v>
     <v>       0.05480788      11.21833490       0.00000000 </v>
     <v>       0.00000000       0.00000000      11.19562010 </v>
    </varray>
    <i name="volume">   1473.99817718 </i>
    <varray name="rec_basis" >
     <v>       0.08520785      -0.00041629       0.00000000 </v>
     <v>       0.00043630       0.08913766       0.00000000 </v>
     <v>       0.00000000       0.00000000       0.08932064 </v>
    </varray>
   </crystal>
   <varray name="positions" >
    <v>       0.03541706       0.36277547       0.35737469 </v>
    <v>       0.36875039       0.36277547       0.35648149 </v>
    <v>       0.70208372       0.36277547       0.35648149 </v>
    <v>       0.03541706       0.86277547       0.35648149 </v>
    <v>       0.36875039       0.86277547       0.35648149 </v>
    <v>       0.70208372       0.86277547       0.35648149 </v>
    <v>       0.03541706       0.36277547       0.85648149 </v>
    <v>       0.36875039       0.36277547       0.85648149 </v>
    <v>       0.70208372       0.36277547       0.85648149 </v>
    <v>       0.03541706       0.86277547       0.85648149 </v>
    <v>       0.36875039       0.86277547       0.85648149 </v>
    <v>       0.70208372       0.86277547       0.85648149 </v>
    <v>       0.03541706       0.11277547       0.14351851 </v>
    <v>       0.36875039       0.11277547       0.14351851 </v>
    <v>       0.70208372       0.11277547       0.14351851 </v>
    <v>       0.03541706       0.61277547       0.14351851 </v>
    <v>       0.36875039       0.61277547       0.14351851 </v>
    <v>       0.70208372       0.61277547       0.14351851 </v>
    <v>       0.03541706       0.11277547       0.64351851 </v>
    <v>       0.36875039       0.11277547       0.64351851 </v>
    <v>       0.70208372       0.11277547       0.64351851 </v>
    <v>       0.03541706       0.61277547       0.64351851 </v>
    <v>       0.36875039       0.61277547       0.64351851 </v>
    <v>       0.70208372       0.61277547       0.64351851 </v>
    <v>       0.20209458       0.21898060       0.27246215 </v>
    <v>       0.53542792       0.21898060       0.27246215 </v>
    <v>       0.86876125       0.21898060       0.27246215 </v>
    <v>       0.20209458       0.71898060       0.27246215 </v>
    <v>       0.53542792       0.71898060       0.27246215 </v>
    <v>       0.86876125       0.71898060       0.27246215 </v>
    <v>       0.20209458       0.21898060       0.77246215 </v>
    <v>       0.53542792       0.21898060       0.77246215 </v>
    <v>       0.86876125       0.21898060       0.77246215 </v>
    <v>       0.20209458       0.71898060       0.77246215 </v>
    <v>       0.53542792       0.71898060       0.77246215 </v>
    <v>       0.86876125       0.71898060       0.77246215 </v>
    <v>       0.20209458       0.46898060       0.22753785 </v>
    <v>       0.53542792       0.46898060       0.22753785 </v>
    <v>       0.86876125       0.46898060       0.22753785 </v>
    <v>       0.20209458       0.96898060       0.22753785 </v>
    <v>       0.53542792       0.96898060       0.22753785 </v>
    <v>       0.86876125       0.96898060       0.22753785 </v>
    <v>       0.20209458       0.46898060       0.72753785 </v>
    <v>       0.53542792       0.46898060       0.72753785 </v>
    <v>       0.86876125       0.46898060       0.72753785 </v>
    <v>       0.20209458       0.96898060       0.72753785 </v>
    <v>       0.53542792       0.96898060       0.72753785 </v>
    <v>       0.86876125       0.96898060       0.72753785 </v>
    <v>       0.20209064       0.36769237       0.37376509 </v>
    <v>       0.53542398       0.36769237       0.37376509 </v>
    <v>       0.86875731       0.36769237       0.37376509 </v>
    <v>       0.20209064       0.86769237       0.37376509 </v>
    <v>       0.53542398       0.86769237       0.37376509 </v>
    <v>       0.86875731       0.86769237       0.37376509 </v>
    <v>       0.20209064       0.36769237       0.87376509 </v>
    <v>       0.53542398       0.36769237       0.87376509 </v>
    <v>       0.86875731       0.36769237       0.87376509 </v>
    <v>       0.20209064       0.86769237       0.87376509 </v>
    <v>       0.53542398       0.86769237       0.87376509 </v>
    <v>       0.86875731       0.86769237       0.87376509 </v>
    <v>       0.20209064       0.11769237       0.12623491 </v>
    <v>       0.53542398       0.11769237       0.12623491 </v>
    <v>       0.86875731       0.11769237       0.12623491 </v>
    <v>       0.20209064       0.61769237       0.12623491 </v>
    <v>       0.53542398       0.61769237       0.12623491 </v>
    <v>       0.86875731       0.61769237       0.12623491 </v>
    <v>       0.20209064       0.11769237       0.62623491 </v>
    <v>       0.53542398       0.11769237       0.62623491 </v>
    <v>       0.86875731       0.11769237       0.62623491 </v>
    <v>       0.20209064       0.61769237       0.62623491 </v>
    <v>       0.53542398       0.61769237       0.62623491 </v>
    <v>       0.86875731       0.61769237       0.62623491 </v>
    <v>       0.03542751       0.37011947       0.12029448 </v>
    <v>       0.36876084       0.37011947       0.12029448 </v>
    <v>       0.70209418       0.37011947       0.12029448 </v>
    <v>       0.03542751       0.87011947       0.12029448 </v>
    <v>       0.36876084       0.87011947       0.12029448 </v>
    <v>       0.70209418       0.87011947       0.12029448 </v>
    <v>       0.03542751       0.37011947       0.62029448 </v>
    <v>       0.36876084       0.37011947       0.62029448 </v>
    <v>       0.70209418       0.37011947       0.62029448 </v>
    <v>       0.03542751       0.87011947       0.62029448 </v>
    <v>       0.36876084       0.87011947       0.62029448 </v>
    <v>       0.70209418       0.87011947       0.62029448 </v>
    <v>       0.03542751       0.12011947       0.37970552 </v>
    <v>       0.36876084       0.12011947       0.37970552 </v>
    <v>       0.70209418       0.12011947       0.37970552 </v>
    <v>       0.03542751       0.62011947       0.37970552 </v>
    <v>       0.36876084       0.62011947       0.37970552 </v>
    <v>       0.70209418       0.62011947       0.37970552 </v>
    <v>       0.03542751       0.12011947       0.87970552 </v>
    <v>       0.36876084       0.12011947       0.87970552 </v>
    <v>       0.70209418       0.12011947       0.87970552 </v>
    <v>       0.03542751       0.62011947       0.87970552 </v>
    <v>       0.36876084       0.62011947       0.87970552 </v>
    <v>       0.70209418       0.62011947       0.87970552 </v>
    <v>       0.20209387       0.01225309       0.48003463 </v>
    <v>       0.53542720       0.01225309       0.48003463 </v>
    <v>       0.86876054       0.01225309       0.48003463 </v>
    <v>       0.20209387       0.51225309       0.48003463 </v>
    <v>       0.53542720       0.51225309       0.48003463 </v>
    <v>       0.86876054       0.51225309       0.48003463 </v>
    <v>       0.20209387       0.01225309       0.98003463 </v>
    <v>       0.53542720       0.01225309       0.98003463 </v>
    <v>       0.86876054       0.01225309       0.98003463 </v>
    <v>       0.20209387       0.51225309       0.98003463 </v>
    <v>       0.53542720       0.51225309       0.98003463 </v>
    <v>       0.86876054       0.51225309       0.98003463 </v>
    <v>       0.20209387       0.26225309       0.01996537 </v>
    <v>       0.53542720       0.26225309       0.01996537 </v>
    <v>       0.86876054       0.26225309       0.01996537 </v>
    <v>       0.20209387       0.76225309       0.01996537 </v>
    <v>       0.53542720       0.76225309       0.01996537 </v>
    <v>       0.86876054       0.76225309       0.01996537 </v>
    <v>       0.20209387       0.26225309       0.51996537 </v>
    <v>       0.53542720       0.26225309       0.51996537 </v>
    <v>       0.86876054       0.26225309       0.51996537 </v>
    <v>       0.20209387       0.76225309       0.51996537 </v>
    <v>       0.53542720       0.76225309       0.51996537 </v>
    <v>       0.86876054       0.76225309       0.51996537 </v>
   </varray>
  </structure>
  <varray name="forces" >
   <v>       0.00014486       0.00021393      -0.01747908 </v>
   <v>       0.00217307      -0.00005522      -0.00043783 </v>
   <v>      -0.00037716      -0.00001539      -0.00044584 </v>
   <v>       0.00002373      -0.00009729      -0.00014899 </v>
   <v>       0.00205312      -0.00005084      -0.00029537 </v>
   <v>      -0.00020597      -0.00000546      -0.00030533 </v>
   <v>       0.00010292      -0.00003063       0.00268414 </v>
   <v>       0.00194602      -0.00008421       0.00000273 </v>
   <v>      -0.00015850      -0.00002253       0.00000404 </v>
   <v>       0.00004503      -0.00009040      -0.00024346 </v>
   <v>       0.00204127      -0.00006710      -0.00017361 </v>
   <v>      -0.00023148      -0.00003142      -0.00012037 </v>
   <v>       0.00012351       0.00122412       0.00006449 </v>
   <v>       0.00191156       0.00002501       0.00006987 </v>
   <v>      -0.00014304       0.00004272       0.00006790 </v>
   <v>       0.00013047      -0.00143283       0.00003965 </v>
   <v>       0.00192721      -0.00016678       0.00007731 </v>
   <v>      -0.00015122      -0.00008592       0.00006388 </v>
   <v>       0.00012064      -0.00095424       0.00048952 </v>
   <v>       0.00217395      -0.00011914       0.00034347 </v>
   <v>      -0.00035356      -0.00009529       0.00033289 </v>
   <v>       0.00008177       0.00097107       0.00048997 </v>
   <v>       0.00214804       0.00001281       0.00033173 </v>
   <v>      -0.00033886       0.00002308       0.00031678 </v>
   <v>      -0.00285130       0.00203018      -0.00081762 </v>
   <v>      -0.00018565       0.00012361      -0.00028967 </v>
   <v>       0.00251920       0.00201558      -0.00081673 </v>
   <v>      -0.00002908      -0.00006240      -0.00038682 </v>
   <v>      -0.00018463       0.00007673      -0.00020096 </v>
   <v>      -0.00033506       0.00001289      -0.00034448 </v>
   <v>       0.00028788      -0.00031455       0.00068930 </v>
   <v>      -0.00019382      -0.00007452       0.00018290 </v>
   <v>      -0.00065166      -0.00031019       0.00068120 </v>
   <v>      -0.00024298       0.00005870       0.00023645 </v>
   <v>      -0.00018615      -0.00003135       0.00011461 </v>
   <v>      -0.00010173       0.00007526       0.00026483 </v>
   <v>      -0.00414378      -0.00199708       0.00044676 </v>
   <v>      -0.00016719      -0.00010793      -0.00029529 </v>
   <v>       0.00374043      -0.00203099       0.00046600 </v>
   <v>      -0.00002103       0.00006775      -0.00033386 </v>
   <v>      -0.00017026      -0.00000635      -0.00019303 </v>
   <v>      -0.00034417       0.00001780      -0.00027765 </v>
   <v>       0.00071903       0.00046489       0.00074781 </v>
   <v>      -0.00016177       0.00014992       0.00026385 </v>
   <v>      -0.00109041       0.00047517       0.00070688 </v>
   <v>      -0.00020086      -0.00000738       0.00023925 </v>
   <v>      -0.00018619       0.00007624       0.00014867 </v>
   <v>      -0.00016267      -0.00002313       0.00026778 </v>
   <v>       0.00212280       0.00012081       0.00659396 </v>
   <v>      -0.00007082       0.00018293       0.00105097 </v>
   <v>      -0.00224324       0.00007874       0.00666821 </v>
   <v>      -0.00010545       0.00022715       0.00056049 </v>
   <v>      -0.00005341       0.00018485       0.00086099 </v>
   <v>      -0.00005596       0.00013259       0.00079507 </v>
   <v>       0.00051720       0.00002729      -0.00183577 </v>
   <v>      -0.00007411       0.00008932       0.00045852 </v>
   <v>      -0.00067906       0.00003413      -0.00187784 </v>
   <v>       0.00011217       0.00002514       0.00055013 </v>
   <v>       0.00002174       0.00003425       0.00074301 </v>
   <v>      -0.00035696       0.00009665       0.00061970 </v>
   <v>       0.00053841      -0.00109238      -0.00050807 </v>
   <v>      -0.00006667       0.00000330      -0.00060121 </v>
   <v>      -0.00070210      -0.00103669      -0.00056368 </v>
   <v>       0.00053659       0.00115142      -0.00044930 </v>
   <v>      -0.00000910       0.00027103      -0.00065390 </v>
   <v>      -0.00071979       0.00113840      -0.00055886 </v>
   <v>      -0.00031740       0.00117363      -0.00094536 </v>
   <v>      -0.00003843       0.00034526      -0.00097228 </v>
   <v>       0.00015030       0.00123047      -0.00090004 </v>
   <v>      -0.00030960      -0.00079096      -0.00088332 </v>
   <v>      -0.00003153       0.00001765      -0.00095699 </v>
   <v>       0.00014412      -0.00073410      -0.00100817 </v>
   <v>      -0.00011561      -0.00030520      -0.00079259 </v>
   <v>       0.00033044      -0.00015845      -0.00007201 </v>
   <v>      -0.00070210      -0.00010660      -0.00009365 </v>
   <v>      -0.00011595      -0.00012806       0.00003353 </v>
   <v>      -0.00007867      -0.00015480      -0.00012935 </v>
   <v>      -0.00029452      -0.00018375      -0.00018429 </v>
   <v>      -0.00013458      -0.00022442      -0.00400906 </v>
   <v>      -0.00062817      -0.00017486      -0.00037891 </v>
   <v>       0.00026040      -0.00016549      -0.00038712 </v>
   <v>      -0.00013817      -0.00019508      -0.00036129 </v>
   <v>      -0.00027365      -0.00016152      -0.00037427 </v>
   <v>      -0.00008417      -0.00015954      -0.00039663 </v>
   <v>      -0.00016726       0.00009686       0.00240017 </v>
   <v>      -0.00033301      -0.00004107       0.00049973 </v>
   <v>       0.00002033      -0.00007485       0.00048982 </v>
   <v>      -0.00014441      -0.00044372       0.00210991 </v>
   <v>      -0.00040182      -0.00030557       0.00046184 </v>
   <v>       0.00004318      -0.00028465       0.00047893 </v>
   <v>      -0.00013523      -0.00045520      -0.00074455 </v>
   <v>      -0.00003263      -0.00024992       0.00000218 </v>
   <v>      -0.00033192      -0.00027518      -0.00001362 </v>
   <v>      -0.00014008       0.00022917      -0.00073574 </v>
   <v>      -0.00002182      -0.00002667       0.00001819 </v>
   <v>      -0.00033969      -0.00002601       0.00003130 </v>
   <v>      -0.00004117      -0.00036289       0.00009168 </v>
   <v>      -0.00019519       0.00002624       0.00011998 </v>
   <v>      -0.00039717      -0.00041029       0.00006313 </v>
   <v>       0.00371690       0.00289068       0.00054294 </v>
   <v>      -0.00017925       0.00013839      -0.00001475 </v>
   <v>      -0.00416914       0.00291248       0.00052606 </v>
   <v>      -0.00012428       0.00044349       0.00019912 </v>
   <v>      -0.00019715       0.00011169      -0.00001035 </v>
   <v>      -0.00031786       0.00041563       0.00022344 </v>
   <v>      -0.00142839      -0.00096118       0.00089905 </v>
   <v>      -0.00019754      -0.00005278       0.00014853 </v>
   <v>       0.00096913      -0.00099602       0.00095675 </v>
   <v>      -0.00208096       0.00126801       0.00093353 </v>
   <v>      -0.00018496       0.00022276       0.00013168 </v>
   <v>       0.00163319       0.00122722       0.00096648 </v>
   <v>      -0.00009351      -0.00025363       0.00006806 </v>
   <v>      -0.00018848       0.00001125      -0.00005269 </v>
   <v>      -0.00037642      -0.00026497       0.00009570 </v>
   <v>       0.00536472      -0.00286131       0.00163500 </v>
   <v>      -0.00018052      -0.00010529      -0.00017588 </v>
   <v>      -0.00587918      -0.00282637       0.00161563 </v>
   <v>      -0.00019897       0.00028739      -0.00010336 </v>
   <v>      -0.00018819       0.00011688       0.00001155 </v>
   <v>      -0.00025971       0.00029945      -0.00013869 </v>
  </varray>
  <varray name="stress" >
   <v>      -0.22591401       0.00453742       0.00023956 </v>
   <v>       0.00380526      -0.28017440      -0.00060644 </v>
   <v>       0.00023946      -0.00060618      -0.29870742 </v>
  </varray>
  <energy>
   <i name="e_fr_energy">   -616.43233462 </i>
   <i name="e_wo_entrp">   -616.43233462 </i>
   <i name="e_0_energy">     -0.00000000 </i>
  </energy>
  <time name="totalsc"> 4755.25 4802.97</time>
  <eigenvalues>
   <array>
    <dimension dim="1">band</dimension>
    <dimension dim="2">kpoint</dimension>
    <dimension dim="3">spin</dimension>
    <field>eigene</field>
    <field>occ</field>
    <set>
     <set comment="spin 1">
      <set comment="kpoint 1">
       <r>  -51.4832    1.0000 </r>
       <r>  -51.4831    1.0000 </r>
       <r>  -51.4825    1.0000 </r>
       <r>  -51.4822    1.0000 </r>
       <r>  -51.4816    1.0000 </r>
       <r>  -51.4815    1.0000 </r>
       <r>  -51.4676    1.0000 </r>
       <r>  -51.4675    1.0000 </r>
       <r>  -51.4674    1.0000 </r>
       <r>  -51.4673    1.0000 </r>
       <r>  -51.4668    1.0000 </r>
       <r>  -51.4668    1.0000 </r>
       <r>  -51.4665    1.0000 </r>
       <r>  -51.4664    1.0000 </r>
       <r>  -51.4660    1.0000 </r>
       <r>  -51.4660    1.0000 </r>
       <r>  -51.4658    1.0000 </r>
       <r>  -51.4657    1.0000 </r>
       <r>  -51.4519    1.0000 </r>
       <r>  -51.4519    1.0000 </r>
       <r>  -51.4513    1.0000 </r>
       <r>  -51.4510    1.0000 </r>
       <r>  -51.4504    1.0000 </r>
       <r>  -51.4503    1.0000 </r>
       <r>  -50.2026    1.0000 </r>
       <r>  -50.2023    1.0000 </r>
       <r>  -50.2015    1.0000 </r>
       <r>  -50.2015    1.0000 </r>
       <r>  -50.2011    1.0000 </r>
       <r>  -50.2005    1.0000 </r>
       <r>  -50.1999    1.0000 </r>
       <r>  -50.1997    1.0000 </r>
       <r>  -50.1996    1.0000 </r>
       <r>  -50.1995    1.0000 </r>
       <r>  -50.1988    1.0000 </r>
       <r>  -50.1988    1.0000 </r>
       <r>  -50.1988    1.0000 </r>
       <r>  -50.1987    1.0000 </r>
       <r>  -50.1984    1.0000 </r>
       <r>  -50.1981    1.0000 </r>
       <r>  -50.1978    1.0000 </r>
       <r>  -50.1976    1.0000 </r>
       <r>  -50.1970    1.0000 </r>
       <r>  -50.1968    1.0000 </r>
       <r>  -50.1961    1.0000 </r>
       <r>  -50.1960    1.0000 </r>
       <r>  -50.1954    1.0000 </r>
       <r>  -50.1949    1.0000 </r>
       <r>  -50.0080    1.0000 </r>
       <r>  -50.0079    1.0000 </r>
       <r>  -50.0073    1.0000 </r>
       <r>  -50.0069    1.0000 </r>
       <r>  -50.0064    1.0000 </r>
       <r>  -50.0063    1.0000 </r>
       <r>  -49.9918    1.0000 </r>
       <r>  -49.9918    1.0000 </r>
       <r>  -49.9916    1.0000 </r>
       <r>  -49.9915    1.0000 </r>
       <r>  -49.9910    1.0000 </r>
       <r>  -49.9910    1.0000 </r>
       <r>  -49.9907    1.0000 </r>
       <r>  -49.9906    1.0000 </r>
       <r>  -49.9903    1.0000 </r>
       <r>  -49.9902    1.0000 </r>
       <r>  -49.9900    1.0000 </r>
       <r>  -49.9898    1.0000 </r>
       <r>  -49.9752    1.0000 </r>
       <r>  -49.9751    1.0000 </r>
       <r>  -49.9745    1.0000 </r>
       <r>  -49.9742    1.0000 </r>
       <r>  -49.9736    1.0000 </r>
       <r>  -49.9735    1.0000 </r>
       <r>  -40.5269    1.0000 </r>
       <r>  -40.5258    1.0000 </r>
       <r>  -40.5248    1.0000 </r>
       <r>  -40.5237    1.0000 </r>
       <r>  -40.5227    1.0000 </r>
       <r>  -40.5227    1.0000 </r>
       <r>  -40.5178    1.0000 </r>
       <r>  -40.5174    1.0000 </r>
       <r>  -40.5171    1.0000 </r>
       <r>  -40.5164    1.0000 </r>
       <r>  -40.5155    1.0000 </r>
       <r>  -40.5155    1.0000 </r>
       <r>  -40.5150    1.0000 </r>
       <r>  -40.5149    1.0000 </r>
       <r>  -40.5144    1.0000 </r>
       <r>  -40.5137    1.0000 </r>
       <r>  -40.5130    1.0000 </r>
       <r>  -40.5117    1.0000 </r>
       <r>  -40.5075    1.0000 </r>
       <r>  -40.5068    1.0000 </r>
       <r>  -40.5057    1.0000 </r>
       <r>  -40.5054    1.0000 </r>
       <r>  -40.5050    1.0000 </r>
       <r>  -40.5048    1.0000 </r>
       <r>  -40.3087    1.0000 </r>
       <r>  -40.3083    1.0000 </r>
       <r>  -40.3082    1.0000 </r>
       <r>  -40.3081    1.0000 </r>
       <r>  -40.3078    1.0000 </r>
       <r>  -40.3075    1.0000 </r>
       <r>  -40.3075    1.0000 </r>
       <r>  -40.3074    1.0000 </r>
       <r>  -40.3073    1.0000 </r>
       <r>  -40.3071    1.0000 </r>
       <r>  -40.3070    1.0000 </r>
       <r>  -40.3069    1.0000 </r>
       <r>  -40.3069    1.0000 </r>
       <r>  -40.3065    1.0000 </r>
       <r>  -40.3063    1.0000 </r>
       <r>  -40.3063    1.0000 </r>
       <r>  -40.3060    1.0000 </r>
       <r>  -40.3059    1.0000 </r>
       <r>  -40.3058    1.0000 </r>
       <r>  -40.3058    1.0000 </r>
       <r>  -40.3053    1.0000 </r>
       <r>  -40.3051    1.0000 </r>
       <r>  -40.3050    1.0000 </r>
       <r>  -40.3041    1.0000 </r>
       <r>  -13.5432    1.0000 </r>
       <r>  -13.5431    1.0000 </r>
       <r>  -13.5128    1.0000 </r>
       <r>  -13.5127    1.0000 </r>
       <r>  -13.5122    1.0000 </r>
       <r>  -13.4896    1.0000 </r>
       <r>  -13.3756    1.0000 </r>
       <r>  -13.3752    1.0000 </r>
       <r>  -13.3751    1.0000 </r>
       <r>  -13.3751    1.0000 </r>
       <r>  -13.3736    1.0000 </r>
       <r>  -13.3736    1.0000 </r>
       <r>  -13.3736    1.0000 </r>
       <r>  -13.3733    1.0000 </r>
       <r>  -13.3413    1.0000 </r>
       <r>  -13.3411    1.0000 </r>
       <r>  -13.3375    1.0000 </r>
       <r>  -13.3374    1.0000 </r>
       <r>  -13.2393    1.0000 </r>
       <r>  -13.2392    1.0000 </r>
       <r>  -13.2025    1.0000 </r>
       <r>  -13.2025    1.0000 </r>
       <r>  -13.1982    1.0000 </r>
       <r>  -13.1656    1.0000 </r>
       <r>   -7.7348    1.0000 </r>
       <r>   -7.6698    1.0000 </r>
       <r>   -7.5828    1.0000 </r>
       <r>   -7.5827    1.0000 </r>
       <r>   -7.5410    1.0000 </r>
       <r>   -7.5408    1.0000 </r>
       <r>   -7.5307    1.0000 </r>
       <r>   -7.5306    1.0000 </r>
       <r>   -7.4088    1.0000 </r>
       <r>   -7.3746    1.0000 </r>
       <r>   -7.3746    1.0000 </r>
       <r>   -7.3522    1.0000 </r>
       <r>   -7.3521    1.0000 </r>
       <r>   -7.3520    1.0000 </r>
       <r>   -7.3520    1.0000 </r>
       <r>   -7.3432    1.0000 </r>
       <r>   -7.3432    1.0000 </r>
       <r>   -7.3431    1.0000 </r>
       <r>   -7.3425    1.0000 </r>
       <r>   -7.3151    1.0000 </r>
       <r>   -7.3149    1.0000 </r>
       <r>   -7.2343    1.0000 </r>
       <r>   -7.1164    1.0000 </r>
       <r>   -7.1163    1.0000 </r>
       <r>   -1.9254    1.0000 </r>
       <r>   -1.9149    1.0000 </r>
       <r>   -1.8868    1.0000 </r>
       <r>   -1.8451    1.0000 </r>
       <r>   -1.8450    1.0000 </r>
       <r>   -1.7997    1.0000 </r>
       <r>   -1.7997    1.0000 </r>
       <r>   -1.7918    1.0000 </r>
       <r>   -1.7918    1.0000 </r>
       <r>   -1.7917    1.0000 </r>
       <r>   -1.7781    1.0000 </r>
       <r>   -1.7780    1.0000 </r>
       <r>   -1.5324    1.0000 </r>
       <r>   -1.5324    1.0000 </r>
       <r>   -1.5149    1.0000 </r>
       <r>   -1.5149    1.0000 </r>
       <r>   -1.4879    1.0000 </r>
       <r>   -1.4879    1.0000 </r>
       <r>   -1.4878    1.0000 </r>
       <r>   -1.4878    1.0000 </r>
       <r>   -1.4734    1.0000 </r>
       <r>   -1.4734    1.0000 </r>
       <r>   -1.4734    1.0000 </r>
       <r>   -1.4733    1.0000 </r>
       <r>   -1.4342    1.0000 </r>
       <r>   -1.4342    1.0000 </r>
       <r>   -1.3247    1.0000 </r>
       <r>   -1.3246    1.0000 </r>
       <r>   -1.2053    1.0000 </r>
       <r>   -1.1839    1.0000 </r>
       <r>   -1.1565    1.0000 </r>
       <r>   -1.1563    1.0000 </r>
       <r>   -1.1563    1.0000 </r>
       <r>   -1.1563    1.0000 </r>
       <r>   -1.0799    1.0000 </r>
       <r>   -1.0799    1.0000 </r>
       <r>   -1.0583    1.0000 </r>
       <r>   -1.0583    1.0000 </r>
       <r>   -1.0582    1.0000 </r>
       <r>   -1.0582    1.0000 </r>
       <r>   -0.9977    1.0000 </r>
       <r>   -0.9977    1.0000 </r>
       <r>   -0.9799    1.0000 </r>
       <r>   -0.9799    1.0000 </r>
       <r>   -0.9381    1.0000 </r>
       <r>   -0.9380    1.0000 </r>
       <r>   -0.9380    1.0000 </r>
       <r>   -0.9379    1.0000 </r>
       <r>   -0.9177    1.0000 </r>
       <r>   -0.9176    1.0000 </r>
       <r>   -0.9176    1.0000 </r>
       <r>   -0.9176    1.0000 </r>
       <r>   -0.9078    1.0000 </r>
       <r>   -0.9078    1.0000 </r>
       <r>   -0.8214    1.0000 </r>
       <r>   -0.8211    1.0000 </r>
       <r>   -0.8184    1.0000 </r>
       <r>   -0.8182    1.0000 </r>
       <r>   -0.6982    1.0000 </r>
       <r>   -0.6680    1.0000 </r>
       <r>   -0.6394    1.0000 </r>
       <r>   -0.6026    1.0000 </r>
       <r>   -0.5702    1.0000 </r>
       <r>   -0.5063    1.0000 </r>
       <r>   -0.5052    1.0000 </r>
       <r>   -0.5052    1.0000 </r>
       <r>   -0.5052    1.0000 </r>
       <r>   -0.5052    1.0000 </r>
       <r>   -0.4620    1.0000 </r>
       <r>   -0.4620    1.0000 </r>
       <r>   -0.4593    1.0000 </r>
       <r>   -0.4593    1.0000 </r>
       <r>   -0.3997    1.0000 </r>
       <r>   -0.3996    1.0000 </r>
       <r>   -0.3982    1.0000 </r>
       <r>   -0.3982    1.0000 </r>
       <r>   -0.3982    1.0000 </r>
       <r>   -0.3982    1.0000 </r>
       <r>   -0.2861    1.0000 </r>
       <r>   -0.2860    1.0000 </r>
       <r>   -0.2825    1.0000 </r>
       <r>   -0.2824    1.0000 </r>
       <r>   -0.2798    1.0000 </r>
       <r>   -0.2797    1.0000 </r>
       <r>   -0.1802    1.0000 </r>
       <r>   -0.1762    1.0000 </r>
       <r>   -0.1466    1.0000 </r>
       <r>   -0.1466    1.0000 </r>
       <r>   -0.1332    1.0000 </r>
       <r>   -0.1332    1.0000 </r>
       <r>   -0.0911    1.0000 </r>
       <r>   -0.0911    1.0000 </r>
       <r>   -0.0027    1.0000 </r>
       <r>    0.0231    1.0000 </r>
       <r>    0.0854    1.0000 </r>
       <r>    0.0855    1.0000 </r>
       <r>    0.0916    1.0000 </r>
       <r>    0.0916    1.0000 </r>
       <r>    0.1627    1.0000 </r>
       <r>    0.2041    1.0000 </r>
       <r>    0.2041    1.0000 </r>
       <r>    0.2136    1.0000 </r>
       <r>    0.2137    1.0000 </r>
       <r>    0.2259    1.0000 </r>
       <r>    0.2274    1.0000 </r>
       <r>    0.2409    1.0000 </r>
       <r>    0.2629    1.0000 </r>
       <r>    0.2630    1.0000 </r>
       <r>    0.2781    1.0000 </r>
       <r>    0.2781    1.0000 </r>
       <r>    0.2782    1.0000 </r>
       <r>    0.2782    1.0000 </r>
       <r>    0.3581    1.0000 </r>
       <r>    0.3734    1.0000 </r>
       <r>    0.3734    1.0000 </r>
       <r>    0.3734    1.0000 </r>
       <r>    0.3735    1.0000 </r>
       <r>    0.4228    1.0000 </r>
       <r>    0.4228    1.0000 </r>
       <r>    0.4859    1.0000 </r>
       <r>    0.5393    1.0000 </r>
       <r>    0.5643    1.0000 </r>
       <r>    0.5643    1.0000 </r>
       <r>    0.6026    1.0000 </r>
       <r>    0.6027    1.0000 </r>
       <r>    0.6389    1.0000 </r>
       <r>    0.6876    1.0000 </r>
       <r>    0.6876    1.0000 </r>
       <r>    0.7931    1.0000 </r>
       <r>    0.7931    1.0000 </r>
       <r>    0.7969    1.0000 </r>
       <r>    0.7969    1.0000 </r>
       <r>    0.8226    1.0000 </r>
       <r>    0.8227    1.0000 </r>
       <r>    0.8227    1.0000 </r>
       <r>    0.8228    1.0000 </r>
       <r>    0.8423    1.0000 </r>
       <r>    0.8751    1.0000 </r>
       <r>    0.8752    1.0000 </r>
       <r>    0.8785    1.0000 </r>
       <r>    0.8786    1.0000 </r>
       <r>    0.9232    1.0000 </r>
       <r>    0.9232    1.0000 </r>
       <r>    0.9233    1.0000 </r>
       <r>    0.9233    1.0000 </r>
       <r>    0.9565    1.0000 </r>
       <r>    1.1226    1.0000 </r>
       <r>    1.1226    1.0000 </r>
       <r>    1.1635    1.0000 </r>
       <r>    1.1636    1.0000 </r>
       <r>    1.2468    1.0000 </r>
       <r>    1.2470    1.0000 </r>
       <r>    1.3189    1.0000 </r>
       <r>    1.3191    1.0000 </r>
       <r>    1.3722    1.0000 </r>
       <r>    1.4356    1.0000 </r>
       <r>    1.4357    1.0000 </r>
       <r>    1.4357    1.0000 </r>
       <r>    1.4357    1.0000 </r>
       <r>    1.4744    1.0000 </r>
       <r>    1.4744    1.0000 </r>
       <r>    1.4745    1.0000 </r>
       <r>    1.4746    1.0000 </r>
       <r>    1.4995    1.0000 </r>
       <r>    1.5608    1.0000 </r>
       <r>    1.5609    1.0000 </r>
       <r>    1.5981    1.0000 </r>
[...]
       <r>   -39.9618     0.1110   120.0000 </r>
       <r>   -39.7235     0.0000   120.0000 </r>
       <r>   -39.4853     0.0000   120.0000 </r>
       <r>   -39.2471     0.0000   120.0000 </r>
       <r>   -39.0089     0.0000   120.0000 </r>
       <r>   -38.7706     0.0000   120.0000 </r>
       <r>   -38.5324     0.0000   120.0000 </r>
       <r>   -38.2942     0.0000   120.0000 </r>
       <r>   -38.0560     0.0000   120.0000 </r>
       <r>   -37.8177     0.0000   120.0000 </r>
       <r>   -37.5795     0.0000   120.0000 </r>
       <r>   -37.3413     0.0000   120.0000 </r>
       <r>   -37.1031     0.0000   120.0000 </r>
       <r>   -36.8648     0.0000   120.0000 </r>
       <r>   -36.6266     0.0000   120.0000 </r>
       <r>   -36.3884     0.0000   120.0000 </r>
       <r>   -36.1502     0.0000   120.0000 </r>
       <r>   -35.9119     0.0000   120.0000 </r>
       <r>   -35.6737     0.0000   120.0000 </r>
       <r>   -35.4355     0.0000   120.0000 </r>
       <r>   -35.1973     0.0000   120.0000 </r>
       <r>   -34.9590     0.0000   120.0000 </r>
       <r>   -34.7208     0.0000   120.0000 </r>
       <r>   -34.4826     0.0000   120.0000 </r>
       <r>   -34.2444     0.0000   120.0000 </r>
       <r>   -34.0061     0.0000   120.0000 </r>
       <r>   -33.7679     0.0000   120.0000 </r>
       <r>   -33.5297     0.0000   120.0000 </r>
       <r>   -33.2915     0.0000   120.0000 </r>
       <r>   -33.0532     0.0000   120.0000 </r>
       <r>   -32.8150     0.0000   120.0000 </r>
       <r>   -32.5768     0.0000   120.0000 </r>
       <r>   -32.3386     0.0000   120.0000 </r>
       <r>   -32.1003     0.0000   120.0000 </r>
       <r>   -31.8621     0.0000   120.0000 </r>
       <r>   -31.6239     0.0000   120.0000 </r>
       <r>   -31.3857     0.0000   120.0000 </r>
       <r>   -31.1474     0.0000   120.0000 </r>
       <r>   -30.9092     0.0000   120.0000 </r>
       <r>   -30.6710     0.0000   120.0000 </r>
       <r>   -30.4328     0.0000   120.0000 </r>
       <r>   -30.1945     0.0000   120.0000 </r>
       <r>   -29.9563     0.0000   120.0000 </r>
       <r>   -29.7181     0.0000   120.0000 </r>
       <r>   -29.4799     0.0000   120.0000 </r>
       <r>   -29.2416     0.0000   120.0000 </r>
       <r>   -29.0034     0.0000   120.0000 </r>
       <r>   -28.7652     0.0000   120.0000 </r>
       <r>   -28.5270     0.0000   120.0000 </r>
       <r>   -28.2888     0.0000   120.0000 </r>
       <r>   -28.0505     0.0000   120.0000 </r>
       <r>   -27.8123     0.0000   120.0000 </r>
       <r>   -27.5741     0.0000   120.0000 </r>
       <r>   -27.3359     0.0000   120.0000 </r>
       <r>   -27.0976     0.0000   120.0000 </r>
       <r>   -26.8594     0.0000   120.0000 </r>
       <r>   -26.6212     0.0000   120.0000 </r>
       <r>   -26.3830     0.0000   120.0000 </r>
       <r>   -26.1447     0.0000   120.0000 </r>
       <r>   -25.9065     0.0000   120.0000 </r>
       <r>   -25.6683     0.0000   120.0000 </r>
       <r>   -25.4301     0.0000   120.0000 </r>
       <r>   -25.1918     0.0000   120.0000 </r>
       <r>   -24.9536     0.0000   120.0000 </r>
       <r>   -24.7154     0.0000   120.0000 </r>
       <r>   -24.4772     0.0000   120.0000 </r>
       <r>   -24.2389     0.0000   120.0000 </r>
       <r>   -24.0007     0.0000   120.0000 </r>
       <r>   -23.7625     0.0000   120.0000 </r>
       <r>   -23.5243     0.0000   120.0000 </r>
       <r>   -23.2860     0.0000   120.0000 </r>
       <r>   -23.0478     0.0000   120.0000 </r>
       <r>   -22.8096     0.0000   120.0000 </r>
       <r>   -22.5714     0.0000   120.0000 </r>
       <r>   -22.3331     0.0000   120.0000 </r>
       <r>   -22.0949     0.0000   120.0000 </r>
       <r>   -21.8567     0.0000   120.0000 </r>
       <r>   -21.6185     0.0000   120.0000 </r>
       <r>   -21.3802     0.0000   120.0000 </r>
       <r>   -21.1420     0.0000   120.0000 </r>
       <r>   -20.9038     0.0000   120.0000 </r>
       <r>   -20.6656     0.0000   120.0000 </r>
       <r>   -20.4273     0.0000   120.0000 </r>
       <r>   -20.1891     0.0000   120.0000 </r>
       <r>   -19.9509     0.0000   120.0000 </r>
       <r>   -19.7127     0.0000   120.0000 </r>
       <r>   -19.4744     0.0000   120.0000 </r>
       <r>   -19.2362     0.0000   120.0000 </r>
       <r>   -18.9980     0.0000   120.0000 </r>
       <r>   -18.7598     0.0000   120.0000 </r>
       <r>   -18.5215     0.0000   120.0000 </r>
       <r>   -18.2833     0.0000   120.0000 </r>
       <r>   -18.0451     0.0000   120.0000 </r>
       <r>   -17.8069     0.0000   120.0000 </r>
       <r>   -17.5686     0.0000   120.0000 </r>
       <r>   -17.3304     0.0000   120.0000 </r>
       <r>   -17.0922     0.0000   120.0000 </r>
       <r>   -16.8540     0.0000   120.0000 </r>
       <r>   -16.6157     0.0000   120.0000 </r>
       <r>   -16.3775     0.0000   120.0000 </r>
       <r>   -16.1393     0.0000   120.0000 </r>
       <r>   -15.9011     0.0000   120.0000 </r>
       <r>   -15.6628     0.0000   120.0000 </r>
       <r>   -15.4246     0.0000   120.0000 </r>
       <r>   -15.1864     0.0000   120.0000 </r>
       <r>   -14.9482     0.0000   120.0000 </r>
       <r>   -14.7099     0.0000   120.0000 </r>
       <r>   -14.4717     0.0000   120.0000 </r>
       <r>   -14.2335     0.0000   120.0000 </r>
       <r>   -13.9953     0.0000   120.0000 </r>
       <r>   -13.7571     0.0000   120.0000 </r>
       <r>   -13.5188     0.0000   120.0000 </r>
       <r>   -13.2806     0.3982   120.0949 </r>
       <r>   -13.0424    68.2512   136.3540 </r>
       <r>   -12.8042    32.0959   144.0000 </r>
       <r>   -12.5659     0.0000   144.0000 </r>
       <r>   -12.3277     0.0000   144.0000 </r>
       <r>   -12.0895     0.0000   144.0000 </r>
       <r>   -11.8513     0.0000   144.0000 </r>
       <r>   -11.6130     0.0000   144.0000 </r>
       <r>   -11.3748     0.0000   144.0000 </r>
       <r>   -11.1366     0.0000   144.0000 </r>
       <r>   -10.8984     0.0000   144.0000 </r>
       <r>   -10.6601     0.0000   144.0000 </r>
       <r>   -10.4219     0.0000   144.0000 </r>
       <r>   -10.1837     0.0000   144.0000 </r>
       <r>    -9.9455     0.0000   144.0000 </r>
       <r>    -9.7072     0.0000   144.0000 </r>
       <r>    -9.4690     0.0000   144.0000 </r>
       <r>    -9.2308     0.0000   144.0000 </r>
       <r>    -8.9926     0.0000   144.0000 </r>
       <r>    -8.7543     0.0000   144.0000 </r>
       <r>    -8.5161     0.0000   144.0000 </r>
       <r>    -8.2779     0.0000   144.0000 </r>
       <r>    -8.0397     0.0000   144.0000 </r>
       <r>    -7.8014     0.0000   144.0000 </r>
       <r>    -7.5632     0.1628   144.0388 </r>
       <r>    -7.3250    29.5556   151.0797 </r>
       <r>    -7.0868    49.3404   162.8337 </r>
       <r>    -6.8485    21.1011   167.8606 </r>
       <r>    -6.6103     0.5853   168.0000 </r>
       <r>    -6.3721     0.0000   168.0000 </r>
       <r>    -6.1339     0.0000   168.0000 </r>
       <r>    -5.8956     0.0000   168.0000 </r>
       <r>    -5.6574     0.0000   168.0000 </r>
       <r>    -5.4192     0.0000   168.0000 </r>
       <r>    -5.1810     0.0000   168.0000 </r>
       <r>    -4.9427     0.0000   168.0000 </r>
       <r>    -4.7045     0.0000   168.0000 </r>
       <r>    -4.4663     0.0000   168.0000 </r>
       <r>    -4.2281     0.0000   168.0000 </r>
       <r>    -3.9898     0.0000   168.0000 </r>
       <r>    -3.7516     0.0000   168.0000 </r>
       <r>    -3.5134     0.0000   168.0000 </r>
       <r>    -3.2752     0.0000   168.0000 </r>
       <r>    -3.0369     0.0000   168.0000 </r>
       <r>    -2.7987     0.0000   168.0000 </r>
       <r>    -2.5605     0.0000   168.0000 </r>
       <r>    -2.3223     0.0000   168.0000 </r>
       <r>    -2.0840     0.0000   168.0000 </r>
       <r>    -1.8458     0.0000   168.0000 </r>
       <r>    -1.6076     0.0000   168.0000 </r>
       <r>    -1.3694     0.0000   168.0000 </r>
       <r>    -1.1311     0.0000   168.0000 </r>
       <r>    -0.8929     0.0000   168.0000 </r>
       <r>    -0.6547     1.9400   168.4621 </r>
       <r>    -0.4165    17.5596   172.6453 </r>
       <r>    -0.1782    38.8455   181.8992 </r>
       <r>     0.0600    34.7730   190.1830 </r>
       <r>     0.2982    23.2717   195.7269 </r>
       <r>     0.5364    48.6857   207.3251 </r>
       <r>     0.7747    48.7196   218.9313 </r>
       <r>     1.0129    68.5018   235.2501 </r>
       <r>     1.2511    25.4056   241.3023 </r>
       <r>     1.4893    23.2640   246.8444 </r>
       <r>     1.7275    38.3582   255.9822 </r>
       <r>     1.9658    45.9302   266.9239 </r>
       <r>     2.2040    29.2985   273.9036 </r>
       <r>     2.4422    35.7255   282.4143 </r>
       <r>     2.6804    25.4239   288.4709 </r>
       <r>     2.9187    45.7060   299.3592 </r>
       <r>     3.1569    41.7429   309.3034 </r>
       <r>     3.3951    14.1887   312.6835 </r>
       <r>     3.6333    31.1897   320.1136 </r>
       <r>     3.8716    56.7453   333.6317 </r>
       <r>     4.1098     9.9413   336.0000 </r>
       <r>     4.3480     0.0000   336.0000 </r>
       <r>     4.5862     0.0000   336.0000 </r>
       <r>     4.8245     0.0000   336.0000 </r>
       <r>     5.0627     0.0000   336.0000 </r>
       <r>     5.3009     0.0000   336.0000 </r>
       <r>     5.5391     0.0000   336.0000 </r>
       <r>     5.7774     0.0000   336.0000 </r>
       <r>     6.0156     0.0049   336.0012 </r>
       <r>     6.2538     1.9546   336.4668 </r>
       <r>     6.4920    13.7050   339.7317 </r>
       <r>     6.7303    26.9689   346.1563 </r>
       <r>     6.9685    25.2838   352.1795 </r>
       <r>     7.2067    58.1482   366.0319 </r>
       <r>     7.4449    75.2136   383.9496 </r>
       <r>     7.6832    29.3043   390.9306 </r>
       <r>     7.9214    41.3479   400.7807 </r>
       <r>     8.1596    78.3634   419.4488 </r>
       <r>     8.3978    49.4721   431.2342 </r>
       <r>     8.6361     3.6338   432.0999 </r>
       <r>     8.8743     1.1746   432.3797 </r>
       <r>     9.1125     4.5076   433.4535 </r>
       <r>     9.3507    10.8180   436.0307 </r>
       <r>     9.5890    21.1267   441.0636 </r>
       <r>     9.8272    28.8442   447.9350 </r>
       <r>    10.0654    30.1268   455.1119 </r>
       <r>    10.3036    30.0245   462.2645 </r>
       <r>    10.5419    25.7873   468.4077 </r>
       <r>    10.7801    25.8597   474.5681 </r>
       <r>    11.0183    24.2119   480.3359 </r>
       <r>    11.2565    10.3613   482.8043 </r>
       <r>    11.4948    25.8888   488.9716 </r>
       <r>    11.7330    30.6233   496.2668 </r>
       <r>    11.9712    56.4729   509.7201 </r>
       <r>    12.2094    44.3758   520.2915 </r>
       <r>    12.4477    26.7401   526.6616 </r>
       <r>    12.6859    23.7924   532.3296 </r>
       <r>    12.9241    27.4746   538.8747 </r>
       <r>    13.1623    32.9712   546.7293 </r>
       <r>    13.4006    18.0453   551.0281 </r>
       <r>    13.6388     4.0798   552.0000 </r>
       <r>    13.8770     0.0000   552.0000 </r>
       <r>    14.1152     0.0000   552.0000 </r>
       <r>    14.3535     0.0000   552.0000 </r>
       <r>    14.5917     0.0000   552.0000 </r>
       <r>    14.8299     0.0000   552.0000 </r>
       <r>    15.0681     0.0000   552.0000 </r>
       <r>    15.3064     0.0000   552.0000 </r>
       <r>    15.5446     0.0000   552.0000 </r>
       <r>    15.7828     0.0000   552.0000 </r>
       <r>    16.0210     0.0000   552.0000 </r>
       <r>    16.2592     0.0000   552.0000 </r>
       <r>    16.4975     0.0000   552.0000 </r>
       <r>    16.7357     0.0000   552.0000 </r>
      </set>
     </set>
    </array>
   </total>
  </dos>
 </calculation>
 <structure name="finalpos" >
  <crystal>
   <varray name="basis" >
    <v>      11.73572724      -0.05744286       0.00000000 </v>
    <v>       0.05480788      11.21833490       0.00000000 </v>
    <v>       0.00000000       0.00000000      11.19562010 </v>
   </varray>
   <i name="volume">   1473.99817718 </i>
   <varray name="rec_basis" >
    <v>       0.08520785      -0.00041629       0.00000000 </v>
    <v>       0.00043630       0.08913766       0.00000000 </v>
    <v>       0.00000000       0.00000000       0.08932064 </v>
   </varray>
  </crystal>
  <varray name="positions" >
   <v>       0.03541706       0.36277547       0.35737469 </v>
   <v>       0.36875039       0.36277547       0.35648149 </v>
   <v>       0.70208372       0.36277547       0.35648149 </v>
   <v>       0.03541706       0.86277547       0.35648149 </v>
   <v>       0.36875039       0.86277547       0.35648149 </v>
   <v>       0.70208372       0.86277547       0.35648149 </v>
   <v>       0.03541706       0.36277547       0.85648149 </v>
   <v>       0.36875039       0.36277547       0.85648149 </v>
   <v>       0.70208372       0.36277547       0.85648149 </v>
   <v>       0.03541706       0.86277547       0.85648149 </v>
   <v>       0.36875039       0.86277547       0.85648149 </v>
   <v>       0.70208372       0.86277547       0.85648149 </v>
   <v>       0.03541706       0.11277547       0.14351851 </v>
   <v>       0.36875039       0.11277547       0.14351851 </v>
   <v>       0.70208372       0.11277547       0.14351851 </v>
   <v>       0.03541706       0.61277547       0.14351851 </v>
   <v>       0.36875039       0.61277547       0.14351851 </v>
   <v>       0.70208372       0.61277547       0.14351851 </v>
   <v>       0.03541706       0.11277547       0.64351851 </v>
   <v>       0.36875039       0.11277547       0.64351851 </v>
   <v>       0.70208372       0.11277547       0.64351851 </v>
   <v>       0.03541706       0.61277547       0.64351851 </v>
   <v>       0.36875039       0.61277547       0.64351851 </v>
   <v>       0.70208372       0.61277547       0.64351851 </v>
   <v>       0.20209458       0.21898060       0.27246215 </v>
   <v>       0.53542792       0.21898060       0.27246215 </v>
   <v>       0.86876125       0.21898060       0.27246215 </v>
   <v>       0.20209458       0.71898060       0.27246215 </v>
   <v>       0.53542792       0.71898060       0.27246215 </v>
   <v>       0.86876125       0.71898060       0.27246215 </v>
   <v>       0.20209458       0.21898060       0.77246215 </v>
   <v>       0.53542792       0.21898060       0.77246215 </v>
   <v>       0.86876125       0.21898060       0.77246215 </v>
   <v>       0.20209458       0.71898060       0.77246215 </v>
   <v>       0.53542792       0.71898060       0.77246215 </v>
   <v>       0.86876125       0.71898060       0.77246215 </v>
   <v>       0.20209458       0.46898060       0.22753785 </v>
   <v>       0.53542792       0.46898060       0.22753785 </v>
   <v>       0.86876125       0.46898060       0.22753785 </v>
   <v>       0.20209458       0.96898060       0.22753785 </v>
   <v>       0.53542792       0.96898060       0.22753785 </v>
   <v>       0.86876125       0.96898060       0.22753785 </v>
   <v>       0.20209458       0.46898060       0.72753785 </v>
   <v>       0.53542792       0.46898060       0.72753785 </v>
   <v>       0.86876125       0.46898060       0.72753785 </v>
   <v>       0.20209458       0.96898060       0.72753785 </v>
   <v>       0.53542792       0.96898060       0.72753785 </v>
   <v>       0.86876125       0.96898060       0.72753785 </v>
   <v>       0.20209064       0.36769237       0.37376509 </v>
   <v>       0.53542398       0.36769237       0.37376509 </v>
   <v>       0.86875731       0.36769237       0.37376509 </v>
   <v>       0.20209064       0.86769237       0.37376509 </v>
   <v>       0.53542398       0.86769237       0.37376509 </v>
   <v>       0.86875731       0.86769237       0.37376509 </v>
   <v>       0.20209064       0.36769237       0.87376509 </v>
   <v>       0.53542398       0.36769237       0.87376509 </v>
   <v>       0.86875731       0.36769237       0.87376509 </v>
   <v>       0.20209064       0.86769237       0.87376509 </v>
   <v>       0.53542398       0.86769237       0.87376509 </v>
   <v>       0.86875731       0.86769237       0.87376509 </v>
   <v>       0.20209064       0.11769237       0.12623491 </v>
   <v>       0.53542398       0.11769237       0.12623491 </v>
   <v>       0.86875731       0.11769237       0.12623491 </v>
   <v>       0.20209064       0.61769237       0.12623491 </v>
   <v>       0.53542398       0.61769237       0.12623491 </v>
   <v>       0.86875731       0.61769237       0.12623491 </v>
   <v>       0.20209064       0.11769237       0.62623491 </v>
   <v>       0.53542398       0.11769237       0.62623491 </v>
   <v>       0.86875731       0.11769237       0.62623491 </v>
   <v>       0.20209064       0.61769237       0.62623491 </v>
   <v>       0.53542398       0.61769237       0.62623491 </v>
   <v>       0.86875731       0.61769237       0.62623491 </v>
   <v>       0.03542751       0.37011947       0.12029448 </v>
   <v>       0.36876084       0.37011947       0.12029448 </v>
   <v>       0.70209418       0.37011947       0.12029448 </v>
   <v>       0.03542751       0.87011947       0.12029448 </v>
   <v>       0.36876084       0.87011947       0.12029448 </v>
   <v>       0.70209418       0.87011947       0.12029448 </v>
   <v>       0.03542751       0.37011947       0.62029448 </v>
   <v>       0.36876084       0.37011947       0.62029448 </v>
   <v>       0.70209418       0.37011947       0.62029448 </v>
   <v>       0.03542751       0.87011947       0.62029448 </v>
   <v>       0.36876084       0.87011947       0.62029448 </v>
   <v>       0.70209418       0.87011947       0.62029448 </v>
   <v>       0.03542751       0.12011947       0.37970552 </v>
   <v>       0.36876084       0.12011947       0.37970552 </v>
   <v>       0.70209418       0.12011947       0.37970552 </v>
   <v>       0.03542751       0.62011947       0.37970552 </v>
   <v>       0.36876084       0.62011947       0.37970552 </v>
   <v>       0.70209418       0.62011947       0.37970552 </v>
   <v>       0.03542751       0.12011947       0.87970552 </v>
   <v>       0.36876084       0.12011947       0.87970552 </v>
   <v>       0.70209418       0.12011947       0.87970552 </v>
   <v>       0.03542751       0.62011947       0.87970552 </v>
   <v>       0.36876084       0.62011947       0.87970552 </v>
   <v>       0.70209418       0.62011947       0.87970552 </v>
   <v>       0.20209387       0.01225309       0.48003463 </v>
   <v>       0.53542720       0.01225309       0.48003463 </v>
   <v>       0.86876054       0.01225309       0.48003463 </v>
   <v>       0.20209387       0.51225309       0.48003463 </v>
   <v>       0.53542720       0.51225309       0.48003463 </v>
   <v>       0.86876054       0.51225309       0.48003463 </v>
   <v>       0.20209387       0.01225309       0.98003463 </v>
   <v>       0.53542720       0.01225309       0.98003463 </v>
   <v>       0.86876054       0.01225309       0.98003463 </v>
   <v>       0.20209387       0.51225309       0.98003463 </v>
   <v>       0.53542720       0.51225309       0.98003463 </v>
   <v>       0.86876054       0.51225309       0.98003463 </v>
   <v>       0.20209387       0.26225309       0.01996537 </v>
   <v>       0.53542720       0.26225309       0.01996537 </v>
   <v>       0.86876054       0.26225309       0.01996537 </v>
   <v>       0.20209387       0.76225309       0.01996537 </v>
   <v>       0.53542720       0.76225309       0.01996537 </v>
   <v>       0.86876054       0.76225309       0.01996537 </v>
   <v>       0.20209387       0.26225309       0.51996537 </v>
   <v>       0.53542720       0.26225309       0.51996537 </v>
   <v>       0.86876054       0.26225309       0.51996537 </v>
   <v>       0.20209387       0.76225309       0.51996537 </v>
   <v>       0.53542720       0.76225309       0.51996537 </v>
   <v>       0.86876054       0.76225309       0.51996537 </v>
  </varray>
 </structure>
</modeling>
