  10  10   0   0
  0.1216366E+02  0.3972662E-09  0.3972662E-09  0.7707277E-09  0.5000000E-15
  1.000000000000000E-004
  CAR 
 unknown system                          
     18.47100486    -54.79898919  301      4.85499763      1.00000000
    -54.799  0.0000E+00  0.0000E+00  0.0000E+00  0.0000E+00
    -54.555  0.0000E+00  0.0000E+00  0.0000E+00  0.0000E+00
    -54.311  0.0000E+00  0.0000E+00  0.0000E+00  0.0000E+00
    -54.066  0.0000E+00  0.0000E+00  0.0000E+00  0.0000E+00
    -53.822  0.0000E+00  0.0000E+00  0.0000E+00  0.0000E+00
    -53.578  0.0000E+00  0.0000E+00  0.0000E+00  0.0000E+00
    -53.334  0.0000E+00  0.0000E+00  0.0000E+00  0.0000E+00
    -53.089  0.0000E+00  0.0000E+00  0.0000E+00  0.0000E+00
    -52.845  0.0000E+00  0.0000E+00  0.0000E+00  0.0000E+00
    -52.601  0.0000E+00  0.0000E+00  0.0000E+00  0.0000E+00
    -52.357  0.0000E+00  0.0000E+00  0.0000E+00  0.0000E+00
    -52.112  0.0000E+00  0.0000E+00  0.0000E+00  0.0000E+00
    -51.868  0.0000E+00  0.0000E+00  0.0000E+00  0.0000E+00
    -51.624  0.4130E-04  0.0000E+00  0.1009E-04  0.0000E+00
    -51.380  0.8137E+01  0.0000E+00  0.1987E+01  0.0000E+00
    -51.135  0.5202E-01  0.0000E+00  0.2000E+01  0.0000E+00
    -50.891  0.0000E+00  0.0000E+00  0.2000E+01  0.0000E+00
    -50.647  0.0000E+00  0.0000E+00  0.2000E+01  0.0000E+00
    -50.403  0.0000E+00  0.0000E+00  0.2000E+01  0.0000E+00
    -50.159  0.2434E-01  0.0000E+00  0.2006E+01  0.0000E+00
    -49.914  0.1635E+02  0.0000E+00  0.5999E+01  0.0000E+00
    -49.670  0.3185E-02  0.0000E+00  0.6000E+01  0.0000E+00
    -49.426  0.0000E+00  0.0000E+00  0.6000E+01  0.0000E+00
    -49.182  0.0000E+00  0.0000E+00  0.6000E+01  0.0000E+00
    -48.937  0.0000E+00  0.0000E+00  0.6000E+01  0.0000E+00
    -48.693  0.0000E+00  0.0000E+00  0.6000E+01  0.0000E+00
    -48.449  0.0000E+00  0.0000E+00  0.6000E+01  0.0000E+00
    -48.205  0.0000E+00  0.0000E+00  0.6000E+01  0.0000E+00
    -47.960  0.0000E+00  0.0000E+00  0.6000E+01  0.0000E+00
    -47.716  0.0000E+00  0.0000E+00  0.6000E+01  0.0000E+00
    -47.472  0.0000E+00  0.0000E+00  0.6000E+01  0.0000E+00
    -47.228  0.0000E+00  0.0000E+00  0.6000E+01  0.0000E+00
    -46.984  0.0000E+00  0.1274E-11  0.6000E+01  0.3112E-12
    -46.739  0.0000E+00  0.2871E+01  0.6000E+01  0.7012E+00
    -46.495  0.0000E+00  0.5318E+01  0.6000E+01  0.2000E+01
    -46.251  0.0000E+00  0.1624E+02  0.6000E+01  0.5967E+01
    -46.007  0.0000E+00  0.1361E+00  0.6000E+01  0.6000E+01
    -45.762  0.0000E+00  0.0000E+00  0.6000E+01  0.6000E+01
    -45.518  0.0000E+00  0.0000E+00  0.6000E+01  0.6000E+01
    -45.274  0.0000E+00  0.0000E+00  0.6000E+01  0.6000E+01
    -45.030  0.0000E+00  0.0000E+00  0.6000E+01  0.6000E+01
    -44.785  0.0000E+00  0.0000E+00  0.6000E+01  0.6000E+01
    -44.541  0.0000E+00  0.0000E+00  0.6000E+01  0.6000E+01
    -44.297  0.0000E+00  0.0000E+00  0.6000E+01  0.6000E+01
    -44.053  0.0000E+00  0.0000E+00  0.6000E+01  0.6000E+01
    -43.808  0.0000E+00  0.0000E+00  0.6000E+01  0.6000E+01
    -43.564  0.0000E+00  0.0000E+00  0.6000E+01  0.6000E+01
    -43.320  0.0000E+00  0.0000E+00  0.6000E+01  0.6000E+01
    -43.076  0.0000E+00  0.0000E+00  0.6000E+01  0.6000E+01
    -42.832  0.0000E+00  0.0000E+00  0.6000E+01  0.6000E+01
    -42.587  0.0000E+00  0.0000E+00  0.6000E+01  0.6000E+01
    -42.343  0.0000E+00  0.0000E+00  0.6000E+01  0.6000E+01
    -42.099  0.0000E+00  0.0000E+00  0.6000E+01  0.6000E+01
    -41.855  0.0000E+00  0.0000E+00  0.6000E+01  0.6000E+01
    -41.610  0.0000E+00  0.0000E+00  0.6000E+01  0.6000E+01
    -41.366  0.0000E+00  0.0000E+00  0.6000E+01  0.6000E+01
    -41.122  0.0000E+00  0.0000E+00  0.6000E+01  0.6000E+01
    -40.878  0.0000E+00  0.0000E+00  0.6000E+01  0.6000E+01
    -40.633  0.2099E-11  0.1385E-11  0.6000E+01  0.6000E+01
    -40.389  0.3074E+01  0.2901E+01  0.6751E+01  0.6708E+01
    -40.145  0.1327E+02  0.1345E+02  0.9993E+01  0.9994E+01
    -39.901  0.3042E-01  0.2460E-01  0.1000E+02  0.1000E+02
    -39.657  0.0000E+00  0.0000E+00  0.1000E+02  0.1000E+02
    -39.412  0.0000E+00  0.0000E+00  0.1000E+02  0.1000E+02
    -39.168  0.0000E+00  0.0000E+00  0.1000E+02  0.1000E+02
    -38.924  0.0000E+00  0.0000E+00  0.1000E+02  0.1000E+02
    -38.680  0.0000E+00  0.0000E+00  0.1000E+02  0.1000E+02
    -38.435  0.0000E+00  0.0000E+00  0.1000E+02  0.1000E+02
    -38.191  0.0000E+00  0.0000E+00  0.1000E+02  0.1000E+02
    -37.947  0.0000E+00  0.0000E+00  0.1000E+02  0.1000E+02
    -37.703  0.0000E+00  0.0000E+00  0.1000E+02  0.1000E+02
    -37.458  0.0000E+00  0.0000E+00  0.1000E+02  0.1000E+02
    -37.214  0.0000E+00  0.0000E+00  0.1000E+02  0.1000E+02
    -36.970  0.0000E+00  0.0000E+00  0.1000E+02  0.1000E+02
    -36.726  0.0000E+00  0.0000E+00  0.1000E+02  0.1000E+02
    -36.481  0.0000E+00  0.0000E+00  0.1000E+02  0.1000E+02
    -36.237  0.0000E+00  0.0000E+00  0.1000E+02  0.1000E+02
    -35.993  0.0000E+00  0.0000E+00  0.1000E+02  0.1000E+02
    -35.749  0.0000E+00  0.0000E+00  0.1000E+02  0.1000E+02
    -35.505  0.0000E+00  0.0000E+00  0.1000E+02  0.1000E+02
    -35.260  0.0000E+00  0.0000E+00  0.1000E+02  0.1000E+02
    -35.016  0.0000E+00  0.0000E+00  0.1000E+02  0.1000E+02
    -34.772  0.0000E+00  0.0000E+00  0.1000E+02  0.1000E+02
    -34.528  0.0000E+00  0.0000E+00  0.1000E+02  0.1000E+02
    -34.283  0.0000E+00  0.0000E+00  0.1000E+02  0.1000E+02
    -34.039  0.0000E+00  0.0000E+00  0.1000E+02  0.1000E+02
    -33.795  0.0000E+00  0.0000E+00  0.1000E+02  0.1000E+02
    -33.551  0.0000E+00  0.0000E+00  0.1000E+02  0.1000E+02
    -33.306  0.0000E+00  0.0000E+00  0.1000E+02  0.1000E+02
    -33.062  0.0000E+00  0.0000E+00  0.1000E+02  0.1000E+02
    -32.818  0.0000E+00  0.0000E+00  0.1000E+02  0.1000E+02
    -32.574  0.0000E+00  0.0000E+00  0.1000E+02  0.1000E+02
    -32.330  0.0000E+00  0.0000E+00  0.1000E+02  0.1000E+02
    -32.085  0.0000E+00  0.0000E+00  0.1000E+02  0.1000E+02
    -31.841  0.0000E+00  0.0000E+00  0.1000E+02  0.1000E+02
    -31.597  0.0000E+00  0.0000E+00  0.1000E+02  0.1000E+02
    -31.353  0.0000E+00  0.0000E+00  0.1000E+02  0.1000E+02
    -31.108  0.0000E+00  0.0000E+00  0.1000E+02  0.1000E+02
    -30.864  0.0000E+00  0.0000E+00  0.1000E+02  0.1000E+02
    -30.620  0.0000E+00  0.0000E+00  0.1000E+02  0.1000E+02
    -30.376  0.0000E+00  0.0000E+00  0.1000E+02  0.1000E+02
    -30.131  0.0000E+00  0.0000E+00  0.1000E+02  0.1000E+02
    -29.887  0.0000E+00  0.0000E+00  0.1000E+02  0.1000E+02
    -29.643  0.0000E+00  0.0000E+00  0.1000E+02  0.1000E+02
    -29.399  0.0000E+00  0.0000E+00  0.1000E+02  0.1000E+02
    -29.154  0.0000E+00  0.0000E+00  0.1000E+02  0.1000E+02
    -28.910  0.0000E+00  0.0000E+00  0.1000E+02  0.1000E+02
    -28.666  0.0000E+00  0.0000E+00  0.1000E+02  0.1000E+02
    -28.422  0.0000E+00  0.0000E+00  0.1000E+02  0.1000E+02
    -28.178  0.0000E+00  0.0000E+00  0.1000E+02  0.1000E+02
    -27.933  0.0000E+00  0.0000E+00  0.1000E+02  0.1000E+02
    -27.689  0.0000E+00  0.0000E+00  0.1000E+02  0.1000E+02
    -27.445  0.0000E+00  0.0000E+00  0.1000E+02  0.1000E+02
    -27.201  0.0000E+00  0.0000E+00  0.1000E+02  0.1000E+02
    -26.956  0.0000E+00  0.0000E+00  0.1000E+02  0.1000E+02
    -26.712  0.0000E+00  0.0000E+00  0.1000E+02  0.1000E+02
    -26.468  0.0000E+00  0.0000E+00  0.1000E+02  0.1000E+02
    -26.224  0.0000E+00  0.0000E+00  0.1000E+02  0.1000E+02
    -25.979  0.0000E+00  0.0000E+00  0.1000E+02  0.1000E+02
    -25.735  0.0000E+00  0.0000E+00  0.1000E+02  0.1000E+02
    -25.491  0.0000E+00  0.0000E+00  0.1000E+02  0.1000E+02
    -25.247  0.0000E+00  0.0000E+00  0.1000E+02  0.1000E+02
    -25.003  0.0000E+00  0.0000E+00  0.1000E+02  0.1000E+02
    -24.758  0.0000E+00  0.0000E+00  0.1000E+02  0.1000E+02
    -24.514  0.0000E+00  0.0000E+00  0.1000E+02  0.1000E+02
    -24.270  0.0000E+00  0.0000E+00  0.1000E+02  0.1000E+02
    -24.026  0.0000E+00  0.0000E+00  0.1000E+02  0.1000E+02
    -23.781  0.0000E+00  0.0000E+00  0.1000E+02  0.1000E+02
    -23.537  0.0000E+00  0.0000E+00  0.1000E+02  0.1000E+02
    -23.293  0.0000E+00  0.0000E+00  0.1000E+02  0.1000E+02
    -23.049  0.0000E+00  0.0000E+00  0.1000E+02  0.1000E+02
    -22.804  0.0000E+00  0.0000E+00  0.1000E+02  0.1000E+02
    -22.560  0.0000E+00  0.0000E+00  0.1000E+02  0.1000E+02
    -22.316  0.0000E+00  0.0000E+00  0.1000E+02  0.1000E+02
    -22.072  0.0000E+00  0.0000E+00  0.1000E+02  0.1000E+02
    -21.827  0.0000E+00  0.0000E+00  0.1000E+02  0.1000E+02
    -21.583  0.0000E+00  0.0000E+00  0.1000E+02  0.1000E+02
    -21.339  0.0000E+00  0.0000E+00  0.1000E+02  0.1000E+02
    -21.095  0.0000E+00  0.0000E+00  0.1000E+02  0.1000E+02
    -20.851  0.0000E+00  0.0000E+00  0.1000E+02  0.1000E+02
    -20.606  0.0000E+00  0.0000E+00  0.1000E+02  0.1000E+02
    -20.362  0.0000E+00  0.0000E+00  0.1000E+02  0.1000E+02
    -20.118  0.0000E+00  0.0000E+00  0.1000E+02  0.1000E+02
    -19.874  0.0000E+00  0.0000E+00  0.1000E+02  0.1000E+02
    -19.629  0.0000E+00  0.0000E+00  0.1000E+02  0.1000E+02
    -19.385  0.0000E+00  0.0000E+00  0.1000E+02  0.1000E+02
    -19.141  0.0000E+00  0.0000E+00  0.1000E+02  0.1000E+02
    -18.897  0.0000E+00  0.0000E+00  0.1000E+02  0.1000E+02
    -18.652  0.0000E+00  0.0000E+00  0.1000E+02  0.1000E+02
    -18.408  0.0000E+00  0.0000E+00  0.1000E+02  0.1000E+02
    -18.164  0.0000E+00  0.0000E+00  0.1000E+02  0.1000E+02
    -17.920  0.0000E+00  0.0000E+00  0.1000E+02  0.1000E+02
    -17.676  0.0000E+00  0.0000E+00  0.1000E+02  0.1000E+02
    -17.431  0.0000E+00  0.0000E+00  0.1000E+02  0.1000E+02
    -17.187  0.0000E+00  0.0000E+00  0.1000E+02  0.1000E+02
    -16.943  0.0000E+00  0.0000E+00  0.1000E+02  0.1000E+02
    -16.699  0.0000E+00  0.0000E+00  0.1000E+02  0.1000E+02
    -16.454  0.0000E+00  0.0000E+00  0.1000E+02  0.1000E+02
    -16.210  0.0000E+00  0.0000E+00  0.1000E+02  0.1000E+02
    -15.966  0.0000E+00  0.0000E+00  0.1000E+02  0.1000E+02
    -15.722  0.0000E+00  0.0000E+00  0.1000E+02  0.1000E+02
    -15.477  0.0000E+00  0.0000E+00  0.1000E+02  0.1000E+02
    -15.233  0.0000E+00  0.0000E+00  0.1000E+02  0.1000E+02
    -14.989  0.0000E+00  0.0000E+00  0.1000E+02  0.1000E+02
    -14.745  0.0000E+00  0.0000E+00  0.1000E+02  0.1000E+02
    -14.500  0.0000E+00  0.0000E+00  0.1000E+02  0.1000E+02
    -14.256  0.0000E+00  0.0000E+00  0.1000E+02  0.1000E+02
    -14.012  0.0000E+00  0.0000E+00  0.1000E+02  0.1000E+02
    -13.768  0.7885E-03  0.0000E+00  0.1000E+02  0.1000E+02
    -13.524  0.3378E+01  0.2257E-07  0.1083E+02  0.1000E+02
    -13.279  0.4274E+01  0.2094E+01  0.1187E+02  0.1051E+02
    -13.035  0.5365E+00  0.5890E+01  0.1200E+02  0.1195E+02
    -12.791  0.0000E+00  0.2042E+00  0.1200E+02  0.1200E+02
    -12.547  0.0000E+00  0.0000E+00  0.1200E+02  0.1200E+02
    -12.302  0.0000E+00  0.0000E+00  0.1200E+02  0.1200E+02
    -12.058  0.0000E+00  0.0000E+00  0.1200E+02  0.1200E+02
    -11.814  0.0000E+00  0.0000E+00  0.1200E+02  0.1200E+02
    -11.570  0.0000E+00  0.0000E+00  0.1200E+02  0.1200E+02
    -11.325  0.0000E+00  0.0000E+00  0.1200E+02  0.1200E+02
    -11.081  0.0000E+00  0.0000E+00  0.1200E+02  0.1200E+02
    -10.837  0.0000E+00  0.0000E+00  0.1200E+02  0.1200E+02
    -10.593  0.0000E+00  0.0000E+00  0.1200E+02  0.1200E+02
    -10.349  0.0000E+00  0.0000E+00  0.1200E+02  0.1200E+02
    -10.104  0.0000E+00  0.0000E+00  0.1200E+02  0.1200E+02
     -9.860  0.0000E+00  0.0000E+00  0.1200E+02  0.1200E+02
     -9.616  0.0000E+00  0.0000E+00  0.1200E+02  0.1200E+02
     -9.372  0.0000E+00  0.0000E+00  0.1200E+02  0.1200E+02
     -9.127  0.0000E+00  0.0000E+00  0.1200E+02  0.1200E+02
     -8.883  0.0000E+00  0.0000E+00  0.1200E+02  0.1200E+02
     -8.639  0.0000E+00  0.0000E+00  0.1200E+02  0.1200E+02
     -8.395  0.0000E+00  0.0000E+00  0.1200E+02  0.1200E+02
     -8.150  0.0000E+00  0.0000E+00  0.1200E+02  0.1200E+02
     -7.906  0.0000E+00  0.0000E+00  0.1200E+02  0.1200E+02
     -7.662  0.6142E-05  0.0000E+00  0.1200E+02  0.1200E+02
     -7.418  0.8299E+00  0.3695E-03  0.1220E+02  0.1200E+02
     -7.173  0.3625E+01  0.1880E+01  0.1309E+02  0.1246E+02
     -6.929  0.3398E+01  0.3844E+01  0.1392E+02  0.1340E+02
     -6.685  0.3360E+00  0.2274E+01  0.1400E+02  0.1395E+02
     -6.441  0.0000E+00  0.1901E+00  0.1400E+02  0.1400E+02
     -6.197  0.0000E+00  0.0000E+00  0.1400E+02  0.1400E+02
     -5.952  0.0000E+00  0.0000E+00  0.1400E+02  0.1400E+02
     -5.708  0.0000E+00  0.0000E+00  0.1400E+02  0.1400E+02
     -5.464  0.0000E+00  0.0000E+00  0.1400E+02  0.1400E+02
     -5.220  0.0000E+00  0.0000E+00  0.1400E+02  0.1400E+02
     -4.975  0.0000E+00  0.0000E+00  0.1400E+02  0.1400E+02
     -4.731  0.0000E+00  0.0000E+00  0.1400E+02  0.1400E+02
     -4.487  0.0000E+00  0.0000E+00  0.1400E+02  0.1400E+02
     -4.243  0.0000E+00  0.0000E+00  0.1400E+02  0.1400E+02
     -3.998  0.0000E+00  0.0000E+00  0.1400E+02  0.1400E+02
     -3.754  0.0000E+00  0.0000E+00  0.1400E+02  0.1400E+02
     -3.510  0.0000E+00  0.0000E+00  0.1400E+02  0.1400E+02
     -3.266  0.0000E+00  0.0000E+00  0.1400E+02  0.1400E+02
     -3.022  0.0000E+00  0.0000E+00  0.1400E+02  0.1400E+02
     -2.777  0.1090E-05  0.0000E+00  0.1400E+02  0.1400E+02
     -2.533  0.2280E+01  0.0000E+00  0.1456E+02  0.1400E+02
     -2.289  0.5951E-01  0.0000E+00  0.1457E+02  0.1400E+02
     -2.045  0.3313E-01  0.0000E+00  0.1458E+02  0.1400E+02
     -1.800  0.2307E+01  0.0000E+00  0.1514E+02  0.1400E+02
     -1.556  0.4341E-04  0.0000E+00  0.1514E+02  0.1400E+02
     -1.312  0.1793E+01  0.1531E-13  0.1558E+02  0.1400E+02
     -1.068  0.4643E+01  0.4743E-01  0.1671E+02  0.1401E+02
     -0.823  0.5264E+01  0.2208E+01  0.1800E+02  0.1455E+02
     -0.579  0.4005E+01  0.6984E+00  0.1898E+02  0.1472E+02
     -0.335  0.4253E+01  0.1483E+01  0.2002E+02  0.1508E+02
     -0.091  0.6193E+01  0.3894E+00  0.2153E+02  0.1518E+02
      0.154  0.4339E+01  0.1623E+01  0.2259E+02  0.1558E+02
      0.398  0.2989E+01  0.4197E+01  0.2332E+02  0.1660E+02
      0.642  0.3572E+01  0.5011E+01  0.2419E+02  0.1782E+02
      0.886  0.2782E+01  0.5843E+01  0.2487E+02  0.1925E+02
      1.130  0.3528E+01  0.3034E+01  0.2573E+02  0.1999E+02
      1.375  0.5473E+01  0.5964E+00  0.2707E+02  0.2014E+02
      1.619  0.4714E+01  0.2693E+01  0.2822E+02  0.2080E+02
      1.863  0.3461E+01  0.2828E+01  0.2907E+02  0.2149E+02
      2.107  0.2202E+01  0.2729E+01  0.2960E+02  0.2215E+02
      2.352  0.2419E+01  0.1127E+01  0.3020E+02  0.2243E+02
      2.596  0.2629E+01  0.3483E+01  0.3084E+02  0.2328E+02
      2.840  0.3349E+01  0.3462E+01  0.3166E+02  0.2412E+02
      3.084  0.3498E+01  0.4616E+01  0.3251E+02  0.2525E+02
      3.329  0.2964E+01  0.2407E+01  0.3323E+02  0.2584E+02
      3.573  0.3664E+01  0.2314E+01  0.3413E+02  0.2640E+02
      3.817  0.2477E+01  0.4971E+01  0.3473E+02  0.2762E+02
      4.061  0.3015E+01  0.1560E+01  0.3547E+02  0.2800E+02
      4.305  0.9965E+00  0.1718E-05  0.3571E+02  0.2800E+02
      4.550  0.1070E+01  0.0000E+00  0.3597E+02  0.2800E+02
      4.794  0.1052E+00  0.0000E+00  0.3600E+02  0.2800E+02
      5.038  0.0000E+00  0.0000E+00  0.3600E+02  0.2800E+02
      5.282  0.0000E+00  0.0000E+00  0.3600E+02  0.2800E+02
      5.527  0.0000E+00  0.0000E+00  0.3600E+02  0.2800E+02
      5.771  0.0000E+00  0.0000E+00  0.3600E+02  0.2800E+02
      6.015  0.0000E+00  0.0000E+00  0.3600E+02  0.2800E+02
      6.259  0.0000E+00  0.0000E+00  0.3600E+02  0.2800E+02
      6.504  0.0000E+00  0.2383E-03  0.3600E+02  0.2800E+02
      6.748  0.0000E+00  0.1509E+01  0.3600E+02  0.2837E+02
      6.992  0.2634E-08  0.4912E+01  0.3600E+02  0.2957E+02
      7.236  0.2006E-01  0.3870E+01  0.3600E+02  0.3051E+02
      7.481  0.8336E-03  0.4000E+01  0.3601E+02  0.3149E+02
      7.725  0.1198E+00  0.3454E+01  0.3603E+02  0.3233E+02
      7.969  0.6995E-01  0.5713E+01  0.3605E+02  0.3373E+02
      8.213  0.4211E+00  0.4907E+01  0.3615E+02  0.3493E+02
      8.457  0.6889E+00  0.2930E+01  0.3632E+02  0.3564E+02
      8.702  0.1089E+01  0.1533E+01  0.3659E+02  0.3602E+02
      8.946  0.1269E+01  0.3943E+00  0.3690E+02  0.3611E+02
      9.190  0.1314E+01  0.6706E+00  0.3722E+02  0.3628E+02
      9.434  0.2706E+01  0.6321E+00  0.3788E+02  0.3643E+02
      9.679  0.1944E+01  0.1654E+01  0.3835E+02  0.3684E+02
      9.923  0.1127E+01  0.1816E+01  0.3863E+02  0.3728E+02
     10.167  0.1204E+01  0.2845E+01  0.3892E+02  0.3797E+02
     10.411  0.1077E+01  0.2354E+01  0.3919E+02  0.3855E+02
     10.656  0.3226E+01  0.1826E+01  0.3998E+02  0.3900E+02
     10.900  0.1786E+01  0.1570E+01  0.4041E+02  0.3938E+02
     11.144  0.3159E+01  0.1871E+01  0.4118E+02  0.3984E+02
     11.388  0.3039E+01  0.1992E+01  0.4193E+02  0.4032E+02
     11.632  0.3360E+01  0.1617E+01  0.4275E+02  0.4072E+02
     11.877  0.2573E+01  0.3836E+01  0.4337E+02  0.4165E+02
     12.121  0.2407E+01  0.4683E+01  0.4396E+02  0.4280E+02
     12.365  0.2287E+01  0.2943E+01  0.4452E+02  0.4352E+02
     12.609  0.2174E+01  0.2428E+01  0.4505E+02  0.4411E+02
     12.854  0.1836E+01  0.1992E+01  0.4550E+02  0.4460E+02
     13.098  0.1610E+01  0.1991E+01  0.4589E+02  0.4508E+02
     13.342  0.1510E+01  0.1547E+01  0.4626E+02  0.4546E+02
     13.586  0.2777E+01  0.2363E+01  0.4694E+02  0.4604E+02
     13.831  0.2286E+01  0.2412E+01  0.4750E+02  0.4663E+02
     14.075  0.1060E+01  0.2277E+01  0.4776E+02  0.4718E+02
     14.319  0.5386E+00  0.1460E+01  0.4789E+02  0.4754E+02
     14.563  0.2679E+00  0.1074E+01  0.4795E+02  0.4780E+02
     14.808  0.1455E+00  0.5807E+00  0.4799E+02  0.4794E+02
     15.052  0.4141E-01  0.1117E+00  0.4800E+02  0.4797E+02
     15.296  0.7175E-06  0.1186E+00  0.4800E+02  0.4800E+02
     15.540  0.0000E+00  0.4607E-06  0.4800E+02  0.4800E+02
     15.784  0.0000E+00  0.0000E+00  0.4800E+02  0.4800E+02
     16.029  0.0000E+00  0.0000E+00  0.4800E+02  0.4800E+02
     16.273  0.0000E+00  0.0000E+00  0.4800E+02  0.4800E+02
     16.517  0.0000E+00  0.0000E+00  0.4800E+02  0.4800E+02
     16.761  0.0000E+00  0.0000E+00  0.4800E+02  0.4800E+02
     17.006  0.0000E+00  0.0000E+00  0.4800E+02  0.4800E+02
     17.250  0.0000E+00  0.0000E+00  0.4800E+02  0.4800E+02
     17.494  0.0000E+00  0.0000E+00  0.4800E+02  0.4800E+02
     17.738  0.0000E+00  0.0000E+00  0.4800E+02  0.4800E+02
     17.983  0.0000E+00  0.0000E+00  0.4800E+02  0.4800E+02
     18.227  0.0000E+00  0.0000E+00  0.4800E+02  0.4800E+02
     18.471  0.0000E+00  0.0000E+00  0.4800E+02  0.4800E+02
