   10   10    1    2
  0.1216366E+02  0.3972662E-09  0.3972662E-09  0.7707277E-09  0.5000000E-15
  1.000000000000000E-004
  CAR 
 unknown system                          
     64     99     48
 
  0.0000000E+00  0.0000000E+00  0.0000000E+00  0.5102041E-02
    1      -51.467133    -46.724503   1.000000   1.000000
    2      -51.467121    -46.724495   1.000000   1.000000
    3      -50.060648    -46.347177   1.000000   1.000000
    4      -50.060469    -46.346927   1.000000   1.000000
    5      -50.033333    -46.328772   1.000000   1.000000
    6      -50.033281    -46.328736   1.000000   1.000000
    7      -40.381281    -40.379379   1.000000   1.000000
    8      -40.377753    -40.375764   1.000000   1.000000
    9      -40.240042    -40.242550   1.000000   1.000000
   10      -40.238127    -40.240581   1.000000   1.000000
   11      -13.649946    -13.320967   1.000000   1.000000
   12      -13.598869    -13.272382   1.000000   1.000000
   13       -7.538631     -7.332652   1.000000   1.000000
   14       -7.233037     -7.092006   1.000000   1.000000
   15       -0.910897      0.384097   1.000000   1.000000
   16       -0.412869      0.384099   1.000000   1.000000
   17       -0.412862      0.391989   1.000000   1.000000
   18       -0.236859      0.646281   1.000000   1.000000
   19       -0.221218      0.950880   1.000000   1.000000
   20       -0.046561      0.950882   1.000000   1.000000
   21       -0.046555      1.420253   1.000000   1.000000
   22        0.137199      2.845527   1.000000   1.000000
   23        0.137201      2.845527   1.000000   1.000000
   24        0.366080      3.037815   1.000000   1.000000
   25        0.435837      3.444646   1.000000   1.000000
   26        0.723822      3.588903   1.000000   1.000000
   27        0.723825      3.588904   1.000000   1.000000
   28        0.908480      3.645988   1.000000   1.000000
   29        1.112469      6.595195   1.000000   0.000000
   30        1.208666      6.889349   1.000000   0.000000
   31        2.204488      6.889355   1.000000   0.000000
   32        3.446679      6.928750   1.000000   0.000000
   33        3.446680      7.021272   1.000000   0.000000
   34        3.486598      7.441467   1.000000   0.000000
   35        3.818920      8.407105   1.000000   0.000000
   36        3.818920      8.407106   1.000000   0.000000
   37        7.174335      8.450192   0.000000   0.000000
   38        9.044434      9.569513   0.000000   0.000000
   39        9.385538      9.823954   0.000000   0.000000
   40        9.864658     10.033156   0.000000   0.000000
   41       10.479959     10.855106   0.000000   0.000000
   42       11.312398     11.593338   0.000000   0.000000
   43       11.312400     11.593339   0.000000   0.000000
   44       12.432190     12.787270   0.000000   0.000000
   45       14.396014     14.773043   0.000000   0.000000
   46       14.396016     14.773046   0.000000   0.000000
   47       14.829657     15.088421   0.000000   0.000000
   48       14.910997     15.088423   0.000000   0.000000
 
  0.1428571E+00  0.0000000E+00  0.0000000E+00  0.1020408E-01
    1      -51.467405    -46.724982   1.000000   1.000000
    2      -51.467108    -46.724483   1.000000   1.000000
    3      -50.060616    -46.347136   1.000000   1.000000
    4      -50.060452    -46.346909   1.000000   1.000000
    5      -50.033404    -46.328928   1.000000   1.000000
    6      -50.033307    -46.328743   1.000000   1.000000
    7      -40.380772    -40.378850   1.000000   1.000000
    8      -40.377627    -40.375629   1.000000   1.000000
    9      -40.239971    -40.242483   1.000000   1.000000
   10      -40.238357    -40.240813   1.000000   1.000000
   11      -13.641093    -13.314972   1.000000   1.000000
   12      -13.552235    -13.242101   1.000000   1.000000
   13       -7.512343     -7.315241   1.000000   1.000000
   14       -7.198859     -7.050260   1.000000   1.000000
   15       -1.008113     -0.053543   1.000000   1.000000
   16       -0.715101      0.432985   1.000000   1.000000
   17       -0.704035      0.438756   1.000000   1.000000
   18       -0.551069      0.680618   1.000000   1.000000
   19       -0.392667      0.937757   1.000000   1.000000
   20       -0.271079      1.105890   1.000000   1.000000
   21       -0.056332      1.216799   1.000000   1.000000
   22       -0.050313      2.813202   1.000000   1.000000
   23        0.269299      2.917746   1.000000   1.000000
   24        0.380040      2.929740   1.000000   1.000000
   25        0.601680      3.149151   1.000000   1.000000
   26        0.801779      3.486830   1.000000   1.000000
   27        1.071043      3.531841   1.000000   1.000000
   28        1.138764      3.656533   1.000000   1.000000
   29        1.224360      6.708488   1.000000   0.000000
   30        1.366235      6.855162   1.000000   0.000000
   31        2.653544      6.930355   1.000000   0.000000
   32        3.064673      7.061211   1.000000   0.000000
   33        3.351153      7.153057   1.000000   0.000000
   34        3.426151      7.559865   1.000000   0.000000
   35        3.688360      8.238764   1.000000   0.000000
   36        3.853544      8.385816   1.000000   0.000000
   37        7.670180      8.920437   0.000000   0.000000
   38        9.188933      9.547620   0.000000   0.000000
   39        9.337413      9.992458   0.000000   0.000000
   40       10.381945     10.677085   0.000000   0.000000
   41       10.535573     10.863804   0.000000   0.000000
   42       10.781313     11.078834   0.000000   0.000000
   43       11.218301     11.635460   0.000000   0.000000
   44       13.108017     13.454153   0.000000   0.000000
   45       13.136636     13.515054   0.000000   0.000000
   46       13.474155     13.778005   0.000000   0.000000
   47       14.005227     14.598888   0.000000   0.000000
   48       14.570294     14.933972   0.000000   0.000000
 
  0.2857143E+00  0.0000000E+00  0.0000000E+00  0.1020408E-01
    1      -51.468026    -46.726050   1.000000   1.000000
    2      -51.467088    -46.724455   1.000000   1.000000
    3      -50.060566    -46.347055   1.000000   1.000000
    4      -50.060439    -46.346888   1.000000   1.000000
    5      -50.033703    -46.329351   1.000000   1.000000
    6      -50.033259    -46.328685   1.000000   1.000000
    7      -40.379826    -40.377853   1.000000   1.000000
    8      -40.377224    -40.375211   1.000000   1.000000
    9      -40.239885    -40.242402   1.000000   1.000000
   10      -40.238923    -40.241382   1.000000   1.000000
   11      -13.652871    -13.325812   1.000000   1.000000
   12      -13.409398    -13.146829   1.000000   1.000000
   13       -7.454579     -7.277514   1.000000   1.000000
   14       -7.119217     -6.952107   1.000000   1.000000
   15       -1.984267     -0.628155   1.000000   1.000000
   16       -1.117287      0.426065   1.000000   1.000000
   17       -0.938554      0.479473   1.000000   1.000000
   18       -0.705380      0.571986   1.000000   1.000000
   19       -0.344216      0.815540   1.000000   1.000000
   20       -0.340239      0.908759   1.000000   1.000000
   21       -0.061663      1.430337   1.000000   1.000000
   22       -0.039206      2.148285   1.000000   1.000000
   23       -0.003124      3.012227   1.000000   1.000000
   24        0.412176      3.094833   1.000000   1.000000
   25        0.600866      3.191714   1.000000   1.000000
   26        1.028292      3.262777   1.000000   1.000000
   27        1.265642      3.301345   1.000000   1.000000
   28        1.295185      3.689839   1.000000   1.000000
   29        1.683189      6.751735   1.000000   0.000000
   30        1.728895      6.832701   1.000000   0.000000
   31        2.421695      6.843137   1.000000   0.000000
   32        3.008979      7.447255   1.000000   0.000000
   33        3.344236      7.552230   1.000000   0.000000
   34        3.468561      7.572081   1.000000   0.000000
   35        3.712154      8.290029   1.000000   0.000000
   36        3.937281      8.339078   1.000000   0.000000
   37        8.404577      8.999067   0.000000   0.000000
   38        8.734735      9.479517   0.000000   0.000000
   39        8.933869     10.057604   0.000000   0.000000
   40       10.117314     10.439959   0.000000   0.000000
   41       10.993490     11.675958   0.000000   0.000000
   42       11.818650     12.201248   0.000000   0.000000
   43       11.862282     12.321001   0.000000   0.000000
   44       12.224774     12.527389   0.000000   0.000000
   45       12.284958     12.553951   0.000000   0.000000
   46       12.725579     13.262771   0.000000   0.000000
   47       13.831983     14.242867   0.000000   0.000000
   48       14.353250     14.698652   0.000000   0.000000
 
  0.4285714E+00  0.0000000E+00  0.0000000E+00  0.1020408E-01
    1      -51.468533    -46.726925   1.000000   1.000000
    2      -51.467071    -46.724429   1.000000   1.000000
    3      -50.060526    -46.346985   1.000000   1.000000
    4      -50.060419    -46.346869   1.000000   1.000000
    5      -50.033948    -46.329709   1.000000   1.000000
    6      -50.033218    -46.328634   1.000000   1.000000
    7      -40.379141    -40.377122   1.000000   1.000000
    8      -40.376822    -40.374802   1.000000   1.000000
    9      -40.239802    -40.242324   1.000000   1.000000
   10      -40.239388    -40.241850   1.000000   1.000000
   11      -13.665614    -13.338045   1.000000   1.000000
   12      -13.284443    -13.063820   1.000000   1.000000
   13       -7.410779     -7.249129   1.000000   1.000000
   14       -7.052260     -6.868545   1.000000   1.000000
   15       -2.610998     -0.991808   1.000000   1.000000
   16       -1.365280      0.084934   1.000000   1.000000
   17       -1.154333      0.501554   1.000000   1.000000
   18       -0.555763      0.690212   1.000000   1.000000
   19       -0.383876      0.888804   1.000000   1.000000
   20       -0.338785      0.890661   1.000000   1.000000
   21       -0.300532      1.026409   1.000000   1.000000
   22       -0.075472      2.198207   1.000000   1.000000
   23        0.047976      3.027716   1.000000   1.000000
   24        0.405118      3.079626   1.000000   1.000000
   25        0.503167      3.135768   1.000000   1.000000
   26        1.122871      3.255820   1.000000   1.000000
   27        1.231769      3.315462   1.000000   1.000000
   28        1.461554      3.642122   1.000000   1.000000
   29        1.890677      6.634768   1.000000   0.000000
   30        2.057479      6.769697   1.000000   0.000000
   31        2.172823      6.946190   1.000000   0.000000
   32        3.050209      7.387085   1.000000   0.000000
   33        3.200089      7.845975   1.000000   0.000000
   34        3.704562      7.924878   1.000000   0.000000
   35        3.972124      8.304354   1.000000   0.000000
   36        4.011327      8.490473   1.000000   0.000000
   37        7.949968      8.501529   0.000000   0.000000
   38        8.284793      9.019507   0.000000   0.000000
   39        9.575799     10.266597   0.000000   0.000000
   40        9.960312     10.988315   0.000000   0.000000
   41       10.807936     11.670378   0.000000   0.000000
   42       11.094156     11.714502   0.000000   0.000000
   43       11.669955     11.878394   0.000000   0.000000
   44       12.041145     12.443093   0.000000   0.000000
   45       12.583520     12.953687   0.000000   0.000000
   46       14.234335     14.467770   0.000000   0.000000
   47       14.275571     14.773091   0.000000   0.000000
   48       14.753166     15.140551   0.000000   0.000000
 
  0.0000000E+00  0.1428571E+00  0.0000000E+00  0.1020408E-01
    1      -51.467393    -46.724974   1.000000   1.000000
    2      -51.467120    -46.724491   1.000000   1.000000
    3      -50.060613    -46.347135   1.000000   1.000000
    4      -50.060454    -46.346910   1.000000   1.000000
    5      -50.033456    -46.328964   1.000000   1.000000
    6      -50.033255    -46.328708   1.000000   1.000000
    7      -40.380772    -40.378850   1.000000   1.000000
    8      -40.377628    -40.375630   1.000000   1.000000
    9      -40.239971    -40.242483   1.000000   1.000000
   10      -40.238357    -40.240813   1.000000   1.000000
   11      -13.641093    -13.314970   1.000000   1.000000
   12      -13.552235    -13.242102   1.000000   1.000000
   13       -7.512343     -7.315241   1.000000   1.000000
   14       -7.198859     -7.050260   1.000000   1.000000
   15       -1.008104     -0.053542   1.000000   1.000000
   16       -0.715110      0.432978   1.000000   1.000000
   17       -0.704041      0.438757   1.000000   1.000000
   18       -0.551052      0.680618   1.000000   1.000000
   19       -0.392659      0.937759   1.000000   1.000000
   20       -0.271099      1.105891   1.000000   1.000000
   21       -0.056337      1.216793   1.000000   1.000000
   22       -0.050307      2.813192   1.000000   1.000000
   23        0.269301      2.917746   1.000000   1.000000
   24        0.380045      2.929741   1.000000   1.000000
   25        0.601680      3.149165   1.000000   1.000000
   26        0.801782      3.486829   1.000000   1.000000
   27        1.071051      3.531841   1.000000   1.000000
   28        1.138766      3.656538   1.000000   1.000000
   29        1.224338      6.708477   1.000000   0.000000
   30        1.366234      6.855169   1.000000   0.000000
   31        2.653550      6.930214   1.000000   0.000000
   32        3.064675      7.061204   1.000000   0.000000
   33        3.351154      7.153201   1.000000   0.000000
   34        3.426150      7.559899   1.000000   0.000000
   35        3.688360      8.238764   1.000000   0.000000
   36        3.853543      8.385816   1.000000   0.000000
   37        7.670180      8.920413   0.000000   0.000000
   38        9.188932      9.547616   0.000000   0.000000
   39        9.337408      9.992465   0.000000   0.000000
   40       10.381950     10.677088   0.000000   0.000000
   41       10.535571     10.863804   0.000000   0.000000
   42       10.781314     11.078830   0.000000   0.000000
   43       11.218303     11.635456   0.000000   0.000000
   44       13.108016     13.454153   0.000000   0.000000
   45       13.136637     13.515056   0.000000   0.000000
   46       13.474157     13.778007   0.000000   0.000000
   47       14.005230     14.598889   0.000000   0.000000
   48       14.570293     14.933970   0.000000   0.000000
 
  0.1428571E+00  0.1428571E+00  0.0000000E+00  0.1020408E-01
    1      -51.467396    -46.724974   1.000000   1.000000
    2      -51.467382    -46.724949   1.000000   1.000000
    3      -50.060591    -46.347101   1.000000   1.000000
    4      -50.060452    -46.346899   1.000000   1.000000
    5      -50.033434    -46.328932   1.000000   1.000000
    6      -50.033382    -46.328896   1.000000   1.000000
    7      -40.380319    -40.378382   1.000000   1.000000
    8      -40.377497    -40.375492   1.000000   1.000000
    9      -40.239925    -40.242439   1.000000   1.000000
   10      -40.238611    -40.241067   1.000000   1.000000
   11      -13.597377    -13.288278   1.000000   1.000000
   12      -13.541091    -13.233301   1.000000   1.000000
   13       -7.480376     -7.290767   1.000000   1.000000
   14       -7.164388     -7.008113   1.000000   1.000000
   15       -1.019684     -0.171971   1.000000   1.000000
   16       -0.930027      0.323891   1.000000   1.000000
   17       -0.689407      0.339975   1.000000   1.000000
   18       -0.672098      0.715198   1.000000   1.000000
   19       -0.600715      0.963473   1.000000   1.000000
   20       -0.539245      0.971932   1.000000   1.000000
   21       -0.498783      1.368767   1.000000   1.000000
   22       -0.131347      2.507269   1.000000   1.000000
   23        0.019803      2.561030   1.000000   1.000000
   24        0.683982      2.977186   1.000000   1.000000
   25        0.880505      3.254857   1.000000   1.000000
   26        1.021131      3.277037   1.000000   1.000000
   27        1.184127      3.436774   1.000000   1.000000
   28        1.303326      3.847567   1.000000   1.000000
   29        1.410579      6.717998   1.000000   0.000000
   30        1.417914      6.911430   1.000000   0.000000
   31        2.798217      7.037343   1.000000   0.000000
   32        2.828697      7.150741   1.000000   0.000000
   33        3.132431      7.204487   1.000000   0.000000
   34        3.565265      7.796955   1.000000   0.000000
   35        3.708000      8.160665   1.000000   0.000000
   36        3.747496      8.246177   1.000000   0.000000
   37        8.031279      9.205662   0.000000   0.000000
   38        9.242528     10.130585   0.000000   0.000000
   39        9.912823     10.320502   0.000000   0.000000
   40       10.223620     10.527722   0.000000   0.000000
   41       10.654643     10.977332   0.000000   0.000000
   42       10.701517     10.990532   0.000000   0.000000
   43       11.126108     11.550789   0.000000   0.000000
   44       12.736959     13.008451   0.000000   0.000000
   45       12.908961     13.221279   0.000000   0.000000
   46       13.354695     13.740418   0.000000   0.000000
   47       13.670152     14.450854   0.000000   0.000000
   48       14.161443     14.656760   0.000000   0.000000
 
  0.2857143E+00  0.1428571E+00  0.0000000E+00  0.1020408E-01
    1      -51.468018    -46.726032   1.000000   1.000000
    2      -51.467364    -46.724923   1.000000   1.000000
    3      -50.060547    -46.347023   1.000000   1.000000
    4      -50.060433    -46.346876   1.000000   1.000000
    5      -50.033684    -46.329320   1.000000   1.000000
    6      -50.033390    -46.328867   1.000000   1.000000
    7      -40.379357    -40.377380   1.000000   1.000000
    8      -40.377174    -40.375158   1.000000   1.000000
    9      -40.239849    -40.242369   1.000000   1.000000
   10      -40.239178    -40.241635   1.000000   1.000000
   11      -13.592669    -13.285940   1.000000   1.000000
   12      -13.416329    -13.153138   1.000000   1.000000
   13       -7.408511     -7.236051   1.000000   1.000000
   14       -7.084127     -6.909062   1.000000   1.000000
   15       -1.975544     -0.614357   1.000000   1.000000
   16       -1.086566      0.206180   1.000000   1.000000
   17       -0.996951      0.361042   1.000000   1.000000
   18       -0.924964      0.533515   1.000000   1.000000
   19       -0.638738      0.816053   1.000000   1.000000
   20       -0.627570      0.979001   1.000000   1.000000
   21       -0.435255      1.536974   1.000000   1.000000
   22       -0.177987      1.945350   1.000000   1.000000
   23        0.089244      2.423673   1.000000   1.000000
   24        0.472424      2.807173   1.000000   1.000000
   25        0.959376      3.223727   1.000000   1.000000
   26        1.104685      3.267380   1.000000   1.000000
   27        1.372154      3.378829   1.000000   1.000000
   28        1.481934      3.859839   1.000000   1.000000
   29        1.726117      6.702031   1.000000   0.000000
   30        1.740890      6.911443   1.000000   0.000000
   31        2.590180      7.044584   1.000000   0.000000
   32        2.760967      7.488163   1.000000   0.000000
   33        3.077399      7.571091   1.000000   0.000000
   34        3.606399      7.887942   1.000000   0.000000
   35        3.800390      8.070548   1.000000   0.000000
   36        3.833365      8.321346   1.000000   0.000000
   37        8.553493      9.695413   0.000000   0.000000
   38        8.990300      9.931871   0.000000   0.000000
   39        9.484310      9.976870   0.000000   0.000000
   40       10.500937     10.856200   0.000000   0.000000
   41       10.928910     11.600525   0.000000   0.000000
   42       11.437734     11.884723   0.000000   0.000000
   43       11.681280     11.949327   0.000000   0.000000
   44       11.967195     12.276029   0.000000   0.000000
   45       12.447138     12.798425   0.000000   0.000000
   46       12.655164     13.184909   0.000000   0.000000
   47       13.723610     14.190115   0.000000   0.000000
   48       13.734167     14.264403   0.000000   0.000000
 
  0.4285714E+00  0.1428571E+00  0.0000000E+00  0.1020408E-01
    1      -51.468525    -46.726901   1.000000   1.000000
    2      -51.467350    -46.724895   1.000000   1.000000
    3      -50.060509    -46.346953   1.000000   1.000000
    4      -50.060413    -46.346850   1.000000   1.000000
    5      -50.033929    -46.329672   1.000000   1.000000
    6      -50.033354    -46.328815   1.000000   1.000000
    7      -40.378697    -40.376682   1.000000   1.000000
    8      -40.376809    -40.374792   1.000000   1.000000
    9      -40.239801    -40.242325   1.000000   1.000000
   10      -40.239643    -40.242102   1.000000   1.000000
   11      -13.604918    -13.297508   1.000000   1.000000
   12      -13.293271    -13.072433   1.000000   1.000000
   13       -7.351880     -7.192905   1.000000   1.000000
   14       -7.016712     -6.824764   1.000000   1.000000
   15       -2.607037     -0.955547   1.000000   1.000000
   16       -1.326983      0.132959   1.000000   1.000000
   17       -1.211460      0.180116   1.000000   1.000000
   18       -0.905261      0.453661   1.000000   1.000000
   19       -0.705052      0.795740   1.000000   1.000000
   20       -0.587722      0.884664   1.000000   1.000000
   21       -0.263072      1.436969   1.000000   1.000000
   22       -0.182168      1.911429   1.000000   1.000000
   23        0.129617      2.654218   1.000000   1.000000
   24        0.180556      2.723465   1.000000   1.000000
   25        0.720252      2.999243   1.000000   1.000000
   26        1.131807      3.082478   1.000000   1.000000
   27        1.400042      3.554850   1.000000   1.000000
   28        1.483740      3.752011   1.000000   1.000000
   29        1.930770      6.618816   1.000000   0.000000
   30        2.188000      6.874910   1.000000   0.000000
   31        2.628822      7.068494   1.000000   0.000000
   32        2.884001      7.779747   1.000000   0.000000
   33        3.046383      7.852034   1.000000   0.000000
   34        3.377924      7.918676   1.000000   0.000000
   35        3.867250      8.017945   1.000000   0.000000
   36        4.039983      8.528539   1.000000   0.000000
   37        8.298624      9.474744   0.000000   0.000000
   38        9.219830      9.607539   0.000000   0.000000
   39        9.381495     10.202583   0.000000   0.000000
   40       10.464641     11.012011   0.000000   0.000000
   41       10.818394     11.249065   0.000000   0.000000
   42       11.013841     11.673376   0.000000   0.000000
   43       11.145307     11.840060   0.000000   0.000000
   44       11.855198     12.337224   0.000000   0.000000
   45       12.976591     13.332032   0.000000   0.000000
   46       13.468918     13.962899   0.000000   0.000000
   47       14.029214     14.316206   0.000000   0.000000
   48       14.082330     14.577486   0.000000   0.000000
 
 -0.4285714E+00  0.1428571E+00  0.0000000E+00  0.1020408E-01
    1      -51.468525    -46.726901   1.000000   1.000000
    2      -51.467350    -46.724895   1.000000   1.000000
    3      -50.060509    -46.346953   1.000000   1.000000
    4      -50.060413    -46.346850   1.000000   1.000000
    5      -50.033929    -46.329672   1.000000   1.000000
    6      -50.033354    -46.328815   1.000000   1.000000
    7      -40.378697    -40.376682   1.000000   1.000000
    8      -40.376809    -40.374792   1.000000   1.000000
    9      -40.239801    -40.242325   1.000000   1.000000
   10      -40.239643    -40.242102   1.000000   1.000000
   11      -13.604918    -13.297508   1.000000   1.000000
   12      -13.293271    -13.072433   1.000000   1.000000
   13       -7.351880     -7.192905   1.000000   1.000000
   14       -7.016712     -6.824764   1.000000   1.000000
   15       -2.607037     -0.955547   1.000000   1.000000
   16       -1.326984      0.132959   1.000000   1.000000
   17       -1.211460      0.180116   1.000000   1.000000
   18       -0.905260      0.453661   1.000000   1.000000
   19       -0.705052      0.795740   1.000000   1.000000
   20       -0.587722      0.884664   1.000000   1.000000
   21       -0.263072      1.436969   1.000000   1.000000
   22       -0.182168      1.911429   1.000000   1.000000
   23        0.129618      2.654218   1.000000   1.000000
   24        0.180557      2.723465   1.000000   1.000000
   25        0.720252      2.999243   1.000000   1.000000
   26        1.131806      3.082478   1.000000   1.000000
   27        1.400042      3.554850   1.000000   1.000000
   28        1.483740      3.752011   1.000000   1.000000
   29        1.930770      6.618817   1.000000   0.000000
   30        2.188000      6.874910   1.000000   0.000000
   31        2.628822      7.068494   1.000000   0.000000
   32        2.884001      7.779746   1.000000   0.000000
   33        3.046382      7.852035   1.000000   0.000000
   34        3.377924      7.918676   1.000000   0.000000
   35        3.867250      8.017944   1.000000   0.000000
   36        4.039983      8.528539   1.000000   0.000000
   37        8.298624      9.474744   0.000000   0.000000
   38        9.219830      9.607539   0.000000   0.000000
   39        9.381495     10.202584   0.000000   0.000000
   40       10.464641     11.012011   0.000000   0.000000
   41       10.818394     11.249066   0.000000   0.000000
   42       11.013841     11.673375   0.000000   0.000000
   43       11.145307     11.840060   0.000000   0.000000
   44       11.855198     12.337224   0.000000   0.000000
   45       12.976590     13.332032   0.000000   0.000000
   46       13.468918     13.962899   0.000000   0.000000
   47       14.029214     14.316206   0.000000   0.000000
   48       14.082330     14.577486   0.000000   0.000000
 
 -0.2857143E+00  0.1428571E+00  0.0000000E+00  0.1020408E-01
    1      -51.468018    -46.726032   1.000000   1.000000
    2      -51.467364    -46.724923   1.000000   1.000000
    3      -50.060547    -46.347023   1.000000   1.000000
    4      -50.060433    -46.346876   1.000000   1.000000
    5      -50.033684    -46.329320   1.000000   1.000000
    6      -50.033390    -46.328867   1.000000   1.000000
    7      -40.379357    -40.377380   1.000000   1.000000
    8      -40.377174    -40.375158   1.000000   1.000000
    9      -40.239849    -40.242369   1.000000   1.000000
   10      -40.239178    -40.241635   1.000000   1.000000
   11      -13.592669    -13.285940   1.000000   1.000000
   12      -13.416329    -13.153138   1.000000   1.000000
   13       -7.408511     -7.236051   1.000000   1.000000
   14       -7.084127     -6.909062   1.000000   1.000000
   15       -1.975544     -0.614357   1.000000   1.000000
   16       -1.086566      0.206180   1.000000   1.000000
   17       -0.996950      0.361042   1.000000   1.000000
   18       -0.924964      0.533515   1.000000   1.000000
   19       -0.638738      0.816053   1.000000   1.000000
   20       -0.627570      0.979001   1.000000   1.000000
   21       -0.435255      1.536974   1.000000   1.000000
   22       -0.177988      1.945349   1.000000   1.000000
   23        0.089245      2.423673   1.000000   1.000000
   24        0.472425      2.807173   1.000000   1.000000
   25        0.959376      3.223726   1.000000   1.000000
   26        1.104684      3.267380   1.000000   1.000000
   27        1.372152      3.378830   1.000000   1.000000
   28        1.481934      3.859839   1.000000   1.000000
   29        1.726117      6.702032   1.000000   0.000000
   30        1.740891      6.911443   1.000000   0.000000
   31        2.590180      7.044585   1.000000   0.000000
   32        2.760967      7.488163   1.000000   0.000000
   33        3.077399      7.571091   1.000000   0.000000
   34        3.606399      7.887941   1.000000   0.000000
   35        3.800390      8.070547   1.000000   0.000000
   36        3.833365      8.321346   1.000000   0.000000
   37        8.553493      9.695413   0.000000   0.000000
   38        8.990299      9.931871   0.000000   0.000000
   39        9.484310      9.976870   0.000000   0.000000
   40       10.500937     10.856200   0.000000   0.000000
   41       10.928910     11.600525   0.000000   0.000000
   42       11.437734     11.884723   0.000000   0.000000
   43       11.681280     11.949327   0.000000   0.000000
   44       11.967195     12.276028   0.000000   0.000000
   45       12.447138     12.798425   0.000000   0.000000
   46       12.655164     13.184909   0.000000   0.000000
   47       13.723610     14.190115   0.000000   0.000000
   48       13.734167     14.264403   0.000000   0.000000
 
 -0.1428571E+00  0.1428571E+00  0.0000000E+00  0.1020408E-01
    1      -51.467396    -46.724974   1.000000   1.000000
    2      -51.467382    -46.724949   1.000000   1.000000
    3      -50.060591    -46.347101   1.000000   1.000000
    4      -50.060452    -46.346899   1.000000   1.000000
    5      -50.033434    -46.328932   1.000000   1.000000
    6      -50.033382    -46.328896   1.000000   1.000000
    7      -40.380319    -40.378382   1.000000   1.000000
    8      -40.377497    -40.375492   1.000000   1.000000
    9      -40.239925    -40.242439   1.000000   1.000000
   10      -40.238611    -40.241067   1.000000   1.000000
   11      -13.597377    -13.288278   1.000000   1.000000
   12      -13.541091    -13.233301   1.000000   1.000000
   13       -7.480376     -7.290767   1.000000   1.000000
   14       -7.164388     -7.008113   1.000000   1.000000
   15       -1.019684     -0.171971   1.000000   1.000000
   16       -0.930027      0.323891   1.000000   1.000000
   17       -0.689408      0.339975   1.000000   1.000000
   18       -0.672097      0.715198   1.000000   1.000000
   19       -0.600715      0.963473   1.000000   1.000000
   20       -0.539245      0.971932   1.000000   1.000000
   21       -0.498783      1.368767   1.000000   1.000000