<?xml version="1.0" encoding="ISO-8859-1"?>
<modeling>
 <generator>
  <i name="program" type="string">vasp </i>
  <i name="version" type="string">5.4.4.18Apr17-6-g9f103f2a35  </i>
  <i name="subversion" type="string">(build Oct 25 2017 14:42:18) complex            parallel </i>
  <i name="platform" type="string">LinuxIFC </i>
  <i name="date" type="string">2021 06 11 </i>
  <i name="time" type="string">22:49:16 </i>
 </generator>
 <incar>
  <i type="string" name="PREC">accurate</i>
  <i type="string" name="ALGO"> normal</i>
  <i type="logical" name="ADDGRID"> T  </i>
  <i type="int" name="ISPIN">     2</i>
  <i type="int" name="NELM">   200</i>
  <i type="int" name="NELMIN">     8</i>
  <i name="EDIFF">      0.00000001</i>
  <i type="int" name="ISYM">     0</i>
  <i name="ENCUT">    650.00000000</i>
  <v name="MAGMOM">      0.60000000      0.60000000      0.60000000      0.60000000      5.00000000      5.00000000      0.60000000      0.60000000      0.60000000      0.60000000</v>
  <i type="logical" name="LREAL"> F  </i>
  <i type="int" name="ISMEAR">     0</i>
  <i name="SIGMA">      0.05000000</i>
  <i type="int" name="NWRITE">     1</i>
  <i type="int" name="LMAXMIX">     4</i>
  <i type="logical" name="LWAVE"> F  </i>
  <i type="logical" name="LASPH"> T  </i>
  <v type="int" name="KPOINT_BSE">    -1     0     0     0</v>
  <i type="int" name="NELM">   200</i>
  <i type="string" name="GGA"> pe</i>
  <i type="logical" name="LDAU"> T  </i>
  <v type="int" name="LDAUTYPE">     2</v>
  <v type="int" name="LDAUL">    -1     2    -1    -1</v>
  <v name="LDAUU">      0.00000000      4.00000000      0.00000000      0.00000000</v>
  <v name="LDAUJ">      0.00000000      0.00000000      0.00000000      0.00000000</v>
  <i type="logical" name="LEPSILON"> T  </i>
  <i type="logical" name="LASPH"> T  </i>
 </incar>
 <structure name="primitive_cell" >
  <crystal>
   <varray name="basis" >
    <v>       3.97266230       0.00000000       0.00000000 </v>
    <v>       0.00000000       3.97266230       0.00000000 </v>
    <v>       0.00000000       0.00000000       7.70727713 </v>
   </varray>
   <i name="volume">    121.63660027 </i>
   <varray name="rec_basis" >
    <v>       0.25172036       0.00000000       0.00000000 </v>
    <v>       0.00000000       0.25172036       0.00000000 </v>
    <v>       0.00000000       0.00000000       0.12974751 </v>
   </varray>
  </crystal>
  <varray name="positions" >
   <v>      -0.50000000      -0.50000000      -0.25000000 </v>
   <v>      -0.50000000      -0.50000000       0.00000000 </v>
   <v>      -0.50000000      -0.50000000      -0.50000000 </v>
   <v>      -0.50000000       0.00000000      -0.50000000 </v>
   <v>       0.00000000      -0.50000000       0.00000000 </v>
   <v>      -0.50000000       0.00000000       0.00000000 </v>
   <v>       0.00000000      -0.50000000      -0.50000000 </v>
   <v>       0.00000000       0.00000000      -0.25000000 </v>
   <v>      -0.50000000      -0.50000000       0.25000000 </v>
   <v>       0.00000000       0.00000000       0.25000000 </v>
  </varray>
 </structure>
 <varray name="primitive_index" >
  <v type="int" >        1 </v>
  <v type="int" >        9 </v>
  <v type="int" >       10 </v>
  <v type="int" >        3 </v>
  <v type="int" >        4 </v>
  <v type="int" >        5 </v>
  <v type="int" >        6 </v>
  <v type="int" >        7 </v>
  <v type="int" >        2 </v>
  <v type="int" >        8 </v>
 </varray>
 <kpoints>
  <generation param="Gamma">
   <v type="int" name="divisions">       7        7        4 </v>
   <v name="usershift">      0.00000000       0.00000000       0.00000000 </v>
   <v name="genvec1">      0.14285714       0.00000000       0.00000000 </v>
   <v name="genvec2">      0.00000000       0.14285714       0.00000000 </v>
   <v name="genvec3">      0.00000000       0.00000000       0.25000000 </v>
   <v name="shift">      0.00000000       0.00000000       0.00000000 </v>
  </generation>
  <varray name="kpointlist" >
   <v>       0.00000000       0.00000000       0.00000000 </v>
   <v>       0.14285714       0.00000000       0.00000000 </v>
   <v>       0.28571429       0.00000000       0.00000000 </v>
   <v>       0.42857143       0.00000000       0.00000000 </v>
   <v>       0.00000000       0.14285714       0.00000000 </v>
   <v>       0.14285714       0.14285714       0.00000000 </v>
   <v>       0.28571429       0.14285714       0.00000000 </v>
   <v>       0.42857143       0.14285714       0.00000000 </v>
   <v>      -0.42857143       0.14285714       0.00000000 </v>
   <v>      -0.28571429       0.14285714       0.00000000 </v>
   <v>      -0.14285714       0.14285714       0.00000000 </v>
   <v>       0.00000000       0.28571429       0.00000000 </v>
   <v>       0.14285714       0.28571429       0.00000000 </v>
   <v>       0.28571429       0.28571429       0.00000000 </v>
   <v>       0.42857143       0.28571429       0.00000000 </v>
   <v>      -0.42857143       0.28571429       0.00000000 </v>
   <v>      -0.28571429       0.28571429       0.00000000 </v>
   <v>      -0.14285714       0.28571429       0.00000000 </v>
   <v>       0.00000000       0.42857143       0.00000000 </v>
   <v>       0.14285714       0.42857143       0.00000000 </v>
   <v>       0.28571429       0.42857143       0.00000000 </v>
   <v>       0.42857143       0.42857143       0.00000000 </v>
   <v>      -0.42857143       0.42857143       0.00000000 </v>
   <v>      -0.28571429       0.42857143       0.00000000 </v>
   <v>      -0.14285714       0.42857143       0.00000000 </v>
   <v>       0.00000000       0.00000000       0.25000000 </v>
   <v>       0.14285714       0.00000000       0.25000000 </v>
   <v>       0.28571429       0.00000000       0.25000000 </v>
   <v>       0.42857143       0.00000000       0.25000000 </v>
   <v>      -0.42857143       0.00000000       0.25000000 </v>
   <v>      -0.28571429       0.00000000       0.25000000 </v>
   <v>      -0.14285714       0.00000000       0.25000000 </v>
   <v>       0.00000000       0.14285714       0.25000000 </v>
   <v>       0.14285714       0.14285714       0.25000000 </v>
   <v>       0.28571429       0.14285714       0.25000000 </v>
   <v>       0.42857143       0.14285714       0.25000000 </v>
   <v>      -0.42857143       0.14285714       0.25000000 </v>
   <v>      -0.28571429       0.14285714       0.25000000 </v>
   <v>      -0.14285714       0.14285714       0.25000000 </v>
   <v>       0.00000000       0.28571429       0.25000000 </v>
   <v>       0.14285714       0.28571429       0.25000000 </v>
   <v>       0.28571429       0.28571429       0.25000000 </v>
   <v>       0.42857143       0.28571429       0.25000000 </v>
   <v>      -0.42857143       0.28571429       0.25000000 </v>
   <v>      -0.28571429       0.28571429       0.25000000 </v>
   <v>      -0.14285714       0.28571429       0.25000000 </v>
   <v>       0.00000000       0.42857143       0.25000000 </v>
   <v>       0.14285714       0.42857143       0.25000000 </v>
   <v>       0.28571429       0.42857143       0.25000000 </v>
   <v>       0.42857143       0.42857143       0.25000000 </v>
   <v>      -0.42857143       0.42857143       0.25000000 </v>
   <v>      -0.28571429       0.42857143       0.25000000 </v>
   <v>      -0.14285714       0.42857143       0.25000000 </v>
   <v>       0.00000000      -0.42857143       0.25000000 </v>
   <v>       0.14285714      -0.42857143       0.25000000 </v>
   <v>       0.28571429      -0.42857143       0.25000000 </v>
   <v>       0.42857143      -0.42857143       0.25000000 </v>
   <v>      -0.42857143      -0.42857143       0.25000000 </v>
   <v>      -0.28571429      -0.42857143       0.25000000 </v>
   <v>      -0.14285714      -0.42857143       0.25000000 </v>
   <v>       0.00000000      -0.28571429       0.25000000 </v>
   <v>       0.14285714      -0.28571429       0.25000000 </v>
   <v>       0.28571429      -0.28571429       0.25000000 </v>
   <v>       0.42857143      -0.28571429       0.25000000 </v>
   <v>      -0.42857143      -0.28571429       0.25000000 </v>
   <v>      -0.28571429      -0.28571429       0.25000000 </v>
   <v>      -0.14285714      -0.28571429       0.25000000 </v>
   <v>       0.00000000      -0.14285714       0.25000000 </v>
   <v>       0.14285714      -0.14285714       0.25000000 </v>
   <v>       0.28571429      -0.14285714       0.25000000 </v>
   <v>       0.42857143      -0.14285714       0.25000000 </v>
   <v>      -0.42857143      -0.14285714       0.25000000 </v>
   <v>      -0.28571429      -0.14285714       0.25000000 </v>
   <v>      -0.14285714      -0.14285714       0.25000000 </v>
   <v>       0.00000000       0.00000000       0.50000000 </v>
   <v>       0.14285714       0.00000000       0.50000000 </v>
   <v>       0.28571429       0.00000000       0.50000000 </v>
   <v>       0.42857143       0.00000000       0.50000000 </v>
   <v>       0.00000000       0.14285714       0.50000000 </v>
   <v>       0.14285714       0.14285714       0.50000000 </v>
   <v>       0.28571429       0.14285714       0.50000000 </v>
   <v>       0.42857143       0.14285714       0.50000000 </v>
   <v>      -0.42857143       0.14285714       0.50000000 </v>
   <v>      -0.28571429       0.14285714       0.50000000 </v>
   <v>      -0.14285714       0.14285714       0.50000000 </v>
   <v>       0.00000000       0.28571429       0.50000000 </v>
   <v>       0.14285714       0.28571429       0.50000000 </v>
   <v>       0.28571429       0.28571429       0.50000000 </v>
   <v>       0.42857143       0.28571429       0.50000000 </v>
   <v>      -0.42857143       0.28571429       0.50000000 </v>
   <v>      -0.28571429       0.28571429       0.50000000 </v>
   <v>      -0.14285714       0.28571429       0.50000000 </v>
   <v>       0.00000000       0.42857143       0.50000000 </v>
   <v>       0.14285714       0.42857143       0.50000000 </v>
   <v>       0.28571429       0.42857143       0.50000000 </v>
   <v>       0.42857143       0.42857143       0.50000000 </v>
   <v>      -0.42857143       0.42857143       0.50000000 </v>
   <v>      -0.28571429       0.42857143       0.50000000 </v>
   <v>      -0.14285714       0.42857143       0.50000000 </v>
  </varray>
  <varray name="weights" >
   <v>       0.00510204 </v>
   <v>       0.01020408 </v>
   <v>       0.01020408 </v>
   <v>       0.01020408 </v>
   <v>       0.01020408 </v>
   <v>       0.01020408 </v>
   <v>       0.01020408 </v>
   <v>       0.01020408 </v>
   <v>       0.01020408 </v>
   <v>       0.01020408 </v>
   <v>       0.01020408 </v>
   <v>       0.01020408 </v>
   <v>       0.01020408 </v>
   <v>       0.01020408 </v>
   <v>       0.01020408 </v>
   <v>       0.01020408 </v>
   <v>       0.01020408 </v>
   <v>       0.01020408 </v>
   <v>       0.01020408 </v>
   <v>       0.01020408 </v>
   <v>       0.01020408 </v>
   <v>       0.01020408 </v>
   <v>       0.01020408 </v>
   <v>       0.01020408 </v>
   <v>       0.01020408 </v>
   <v>       0.01020408 </v>
   <v>       0.01020408 </v>
   <v>       0.01020408 </v>
   <v>       0.01020408 </v>
   <v>       0.01020408 </v>
   <v>       0.01020408 </v>
   <v>       0.01020408 </v>
   <v>       0.01020408 </v>
   <v>       0.01020408 </v>
   <v>       0.01020408 </v>
   <v>       0.01020408 </v>
   <v>       0.01020408 </v>
   <v>       0.01020408 </v>
   <v>       0.01020408 </v>
   <v>       0.01020408 </v>
   <v>       0.01020408 </v>
   <v>       0.01020408 </v>
   <v>       0.01020408 </v>
   <v>       0.01020408 </v>
   <v>       0.01020408 </v>
   <v>       0.01020408 </v>
   <v>       0.01020408 </v>
   <v>       0.01020408 </v>
   <v>       0.01020408 </v>
   <v>       0.01020408 </v>
   <v>       0.01020408 </v>
   <v>       0.01020408 </v>
   <v>       0.01020408 </v>
   <v>       0.01020408 </v>
   <v>       0.01020408 </v>
   <v>       0.01020408 </v>
   <v>       0.01020408 </v>
   <v>       0.01020408 </v>
   <v>       0.01020408 </v>
   <v>       0.01020408 </v>
   <v>       0.01020408 </v>
   <v>       0.01020408 </v>
   <v>       0.01020408 </v>
   <v>       0.01020408 </v>
   <v>       0.01020408 </v>
   <v>       0.01020408 </v>
   <v>       0.01020408 </v>
   <v>       0.01020408 </v>
   <v>       0.01020408 </v>
   <v>       0.01020408 </v>
   <v>       0.01020408 </v>
   <v>       0.01020408 </v>
   <v>       0.01020408 </v>
   <v>       0.01020408 </v>
   <v>       0.00510204 </v>
   <v>       0.01020408 </v>
   <v>       0.01020408 </v>
   <v>       0.01020408 </v>
   <v>       0.01020408 </v>
   <v>       0.01020408 </v>
   <v>       0.01020408 </v>
   <v>       0.01020408 </v>
   <v>       0.01020408 </v>
   <v>       0.01020408 </v>
   <v>       0.01020408 </v>
   <v>       0.01020408 </v>
   <v>       0.01020408 </v>
   <v>       0.01020408 </v>
   <v>       0.01020408 </v>
   <v>       0.01020408 </v>
   <v>       0.01020408 </v>
   <v>       0.01020408 </v>
   <v>       0.01020408 </v>
   <v>       0.01020408 </v>
   <v>       0.01020408 </v>
   <v>       0.01020408 </v>
   <v>       0.01020408 </v>
   <v>       0.01020408 </v>
   <v>       0.01020408 </v>
  </varray>
 </kpoints>
 <parameters>
  <separator name="general" >
   <i type="string" name="SYSTEM">unknown system</i>
   <i type="logical" name="LCOMPAT"> F  </i>
  </separator>
  <separator name="electronic" >
   <i type="string" name="PREC">accura</i>
   <i name="ENMAX">    650.00000000</i>
   <i name="ENAUG">    628.94500000</i>
   <i name="EDIFF">      0.00000001</i>
   <i type="int" name="IALGO">    38</i>
   <i type="int" name="IWAVPR">    10</i>
   <i type="int" name="NBANDS">    48</i>
   <i name="NELECT">     64.00000000</i>
   <i type="int" name="TURBO">     0</i>
   <i type="int" name="IRESTART">     0</i>
   <i type="int" name="NREBOOT">     0</i>
   <i type="int" name="NMIN">     0</i>
   <i name="EREF">      0.00000000</i>
   <separator name="electronic smearing" >
    <i type="int" name="ISMEAR">     0</i>
    <i name="SIGMA">      0.05000000</i>
    <i name="KSPACING">      0.50000000</i>
    <i type="logical" name="KGAMMA"> T  </i>
   </separator>
   <separator name="electronic projectors" >
    <i type="logical" name="LREAL"> F  </i>
    <v name="ROPT">      0.00000000      0.00000000      0.00000000      0.00000000</v>
    <i type="int" name="LMAXPAW">  -100</i>
    <i type="int" name="LMAXMIX">     4</i>
    <i type="logical" name="NLSPLINE"> F  </i>
   </separator>
   <separator name="electronic startup" >
    <i type="int" name="ISTART">     0</i>
    <i type="int" name="ICHARG">     2</i>
    <i type="int" name="INIWAV">     1</i>
   </separator>
   <separator name="electronic spin" >
    <i type="int" name="ISPIN">     2</i>
    <i type="logical" name="LNONCOLLINEAR"> F  </i>
    <v name="MAGMOM">      0.60000000      0.60000000      0.60000000      0.60000000      5.00000000      5.00000000      0.60000000      0.60000000      0.60000000      0.60000000</v>
    <i name="NUPDOWN">     -1.00000000</i>
    <i type="logical" name="LSORBIT"> F  </i>
    <v name="SAXIS">      0.00000000      0.00000000      1.00000000</v>
    <i type="logical" name="LSPIRAL"> F  </i>
    <v name="QSPIRAL">      0.00000000      0.00000000      0.00000000</v>
    <i type="logical" name="LZEROZ"> F  </i>
   </separator>
   <separator name="electronic exchange-correlation" >
    <i type="logical" name="LASPH"> T  </i>
    <i type="logical" name="LMETAGGA"> F  </i>
   </separator>
   <separator name="electronic convergence" >
    <i type="int" name="NELM">   200</i>
    <i type="int" name="NELMDL">    -5</i>
    <i type="int" name="NELMIN">     8</i>
    <i name="ENINI">    650.00000000</i>
    <separator name="electronic convergence detail" >
     <i type="logical" name="LDIAG"> T  </i>
     <i type="logical" name="LSUBROT"> F  </i>
     <i name="WEIMIN">      0.00000000</i>
     <i name="EBREAK">      0.00000000</i>
     <i name="DEPER">      0.30000000</i>
     <i type="int" name="NRMM">     4</i>
     <i name="TIME">      0.40000000</i>
    </separator>
   </separator>
   <separator name="electronic mixer" >
    <i name="AMIX">      0.40000000</i>
    <i name="BMIX">      1.00000000</i>
    <i name="AMIN">      0.10000000</i>
    <i name="AMIX_MAG">      1.60000000</i>
    <i name="BMIX_MAG">      1.00000000</i>
    <separator name="electronic mixer details" >
     <i type="int" name="IMIX">     4</i>
     <i type="logical" name="MIXFIRST"> F  </i>
     <i type="int" name="MAXMIX">   -45</i>
     <i name="WC">    100.00000000</i>
     <i type="int" name="INIMIX">     1</i>
     <i type="int" name="MIXPRE">     1</i>
     <i type="int" name="MREMOVE">     5</i>
    </separator>
   </separator>
   <separator name="electronic dipolcorrection" >
    <i type="logical" name="LDIPOL"> F  </i>
    <i type="logical" name="LMONO"> F  </i>
    <i type="int" name="IDIPOL">     0</i>
    <i name="EPSILON">      1.00000000</i>
    <v name="DIPOL">   -100.00000000   -100.00000000   -100.00000000</v>
    <i name="EFIELD">      0.00000000</i>
   </separator>
  </separator>
  <separator name="grids" >
   <i type="int" name="NGX">    36</i>
   <i type="int" name="NGY">    36</i>
   <i type="int" name="NGZ">    64</i>
   <i type="int" name="NGXF">    72</i>
   <i type="int" name="NGYF">    72</i>
   <i type="int" name="NGZF">   128</i>
   <i type="logical" name="ADDGRID"> T  </i>
  </separator>
  <separator name="ionic" >
   <i type="int" name="NSW">     0</i>
   <i type="int" name="IBRION">    -1</i>
   <i type="int" name="MDALGO">     0</i>
   <i type="int" name="ISIF">     2</i>
   <i name="PSTRESS">      0.00000000</i>
   <i name="EDIFFG">      0.00000010</i>
   <i type="int" name="NFREE">     0</i>
   <i name="POTIM">      0.50000000</i>
   <i name="SMASS">     -3.00000000</i>
   <i name="SCALEE">      1.00000000</i>
  </separator>
  <separator name="ionic md" >
   <i name="TEBEG">      0.00010000</i>
   <i name="TEEND">      0.00010000</i>
   <i type="int" name="NBLOCK">     1</i>
   <i type="int" name="KBLOCK">     1</i>
   <i type="int" name="NPACO">   256</i>
   <i name="APACO">     16.00000000</i>
  </separator>
  <separator name="symmetry" >
   <i type="int" name="ISYM">     0</i>
   <i name="SYMPREC">      0.00001000</i>
  </separator>
  <separator name="dos" >
   <i type="int" name="LORBIT">     0</i>
   <v name="RWIGS">     -1.00000000     -1.00000000     -1.00000000     -1.00000000</v>
   <i type="int" name="NEDOS">   301</i>
   <i name="EMIN">     10.00000000</i>
   <i name="EMAX">    -10.00000000</i>
   <i name="EFERMI">      0.00000000</i>
  </separator>
  <separator name="writing" >
   <i type="int" name="NWRITE">     1</i>
   <i type="logical" name="LWAVE"> F  </i>
   <i type="logical" name="LDOWNSAMPLE"> F  </i>
   <i type="logical" name="LCHARG"> T  </i>
   <i type="logical" name="LPARD"> F  </i>
   <i type="logical" name="LVTOT"> F  </i>
   <i type="logical" name="LVHAR"> F  </i>
   <i type="logical" name="LELF"> F  </i>
   <i type="logical" name="LOPTICS"> F  </i>
   <v name="STM">      0.00000000      0.00000000      0.00000000      0.00000000      0.00000000      0.00000000      0.00000000</v>
  </separator>
  <separator name="performance" >
   <i type="int" name="NPAR">    48</i>
   <i type="int" name="NSIM">     4</i>
   <i type="int" name="NBLK">    -1</i>
   <i type="logical" name="LPLANE"> T  </i>
   <i type="logical" name="LSCALAPACK"> T  </i>
   <i type="logical" name="LSCAAWARE"> F  </i>
   <i type="logical" name="LSCALU"> F  </i>
   <i type="logical" name="LASYNC"> F  </i>
   <i type="logical" name="LORBITALREAL"> F  </i>
  </separator>
  <separator name="miscellaneous" >
   <i type="int" name="IDIOT">     3</i>
   <i type="int" name="ISPECIAL">     0</i>
   <i type="logical" name="LMUSIC"> F  </i>
   <v name="POMASS">      7.01000000     55.84700000     32.06600000     16.00000000</v>
   <v name="DARWINR">      0.00000000      0.00000000      0.00000000      0.00000000</v>
   <v name="DARWINV">      1.00000000      1.00000000      1.00000000      1.00000000</v>
   <i type="logical" name="LCORR"> T  </i>
  </separator>
  <i type="logical" name="GGA_COMPAT"> T  </i>
  <i type="logical" name="LBERRY"> F  </i>
  <i type="int" name="ICORELEVEL">     0</i>
  <i type="logical" name="LDAU"> T  </i>
  <v type="int" name="LDAUTYPE">     2</v>
  <v type="int" name="LDAUL">    -1</v>
  <v name="LDAUU">      0.00000000</v>
  <v name="LDAUJ">      0.00000000</v>
  <i type="int" name="LDAUPRINT">     0</i>
  <i type="int" name="I_CONSTRAINED_M">     0</i>
  <separator name="electronic exchange-correlation" >
   <i type="string" name="GGA">PE</i>
   <i type="int" name="VOSKOWN">     0</i>
   <i type="logical" name="LHFCALC"> F  </i>
   <i type="string" name="PRECFOCK"></i>
   <i type="logical" name="LSYMGRAD"> F  </i>
   <i type="logical" name="LHFONE"> F  </i>
   <i type="logical" name="LRHFCALC"> F  </i>
   <i type="logical" name="LTHOMAS"> F  </i>
   <i type="logical" name="LMODELHF"> F  </i>
   <i name="ENCUT4O">     -1.00000000</i>
   <i type="int" name="EXXOEP">     0</i>
   <i type="int" name="FOURORBIT">     0</i>
   <i name="AEXX">      0.00000000</i>
   <i name="HFALPHA">      0.00000000</i>
   <i name="MCALPHA">      0.00000000</i>
   <i name="ALDAX">      1.00000000</i>
   <i name="AGGAX">      1.00000000</i>
   <i name="ALDAC">      1.00000000</i>
   <i name="AGGAC">      1.00000000</i>
   <i type="int" name="NKREDX">     1</i>
   <i type="int" name="NKREDY">     1</i>
   <i type="int" name="NKREDZ">     1</i>
   <i type="logical" name="SHIFTRED"> F  </i>
   <i type="logical" name="ODDONLY"> F  </i>
   <i type="logical" name="EVENONLY"> F  </i>
   <i type="int" name="LMAXFOCK">     0</i>
   <i type="int" name="NMAXFOCKAE">     0</i>
   <i type="logical" name="LFOCKAEDFT"> F  </i>
   <i name="HFSCREEN">      0.00000000</i>
   <i name="HFSCREENC">      0.00000000</i>
   <i type="int" name="NBANDSGWLOW">     0</i>
  </separator>
  <separator name="vdW DFT" >
   <i type="logical" name="LUSE_VDW"> F  </i>
   <i name="Zab_VDW">     -0.84910000</i>
   <i name="PARAM1">      0.12340000</i>
   <i name="PARAM2">      1.00000000</i>
   <i name="PARAM3">      0.00000000</i>
  </separator>
  <separator name="model GW" >
   <i type="int" name="MODEL_GW">     0</i>
   <i name="MODEL_EPS0">      7.29819602</i>
   <i name="MODEL_ALPHA">      1.00000000</i>
  </separator>
  <separator name="linear response parameters" >
   <i type="logical" name="LEPSILON"> T  </i>
   <i type="logical" name="LRPA"> F  </i>
   <i type="logical" name="LNABLA"> F  </i>
   <i type="logical" name="LVEL"> F  </i>
   <i type="int" name="KINTER">     0</i>
   <i name="CSHIFT">      0.10000000</i>
   <i name="OMEGAMAX">     -1.00000000</i>
   <i name="DEG_THRESHOLD">      0.00200000</i>
   <i name="RTIME">     -0.10000000</i>
   <i name="WPLASMAI">      0.00000000</i>
   <v name="DFIELD">      0.00000000      0.00000000      0.00000000</v>
   <v name="WPLASMA">      0.00000000      0.00000000      0.00000000      0.00000000      0.00000000      0.00000000      0.00000000      0.00000000      0.00000000</v>
  </separator>
  <separator name="orbital magnetization" >
   <i type="logical" name="NUCIND"> F  </i>
   <v name="MAGPOS">      0.00000000      0.00000000      0.00000000</v>
   <i type="logical" name="LNICSALL"> T  </i>
   <i type="logical" name="ORBITALMAG"> F  </i>
   <i type="logical" name="LMAGBLOCH"> F  </i>
   <i type="logical" name="LCHIMAG"> F  </i>
   <i type="logical" name="LGAUGE"> T  </i>
   <i type="int" name="MAGATOM">     0</i>
   <v name="MAGDIPOL">      0.00000000      0.00000000      0.00000000</v>
   <v name="AVECCONST">      0.00000000      0.00000000      0.00000000</v>
  </separator>
  <separator name="response functions" >
   <i type="logical" name="LADDER"> F  </i>
   <i type="logical" name="LRPAFORCE"> F  </i>
   <i type="logical" name="LFXC"> F  </i>
   <i type="logical" name="LHARTREE"> T  </i>
   <i type="int" name="IBSE">     0</i>
   <v type="int" name="KPOINT">    -1     0     0     0</v>
   <i type="logical" name="LTCTE"> F  </i>
   <i type="logical" name="LTETE"> F  </i>
   <i type="logical" name="LTRIPLET"> F  </i>
   <i type="logical" name="LFXCEPS"> F  </i>
   <i type="logical" name="LFXHEG"> F  </i>
   <i type="int" name="NATURALO">     2</i>
   <i type="logical" name="L2ORDER"> F  </i>
   <i type="logical" name="LMP2LT"> F  </i>
   <i type="logical" name="LUSEW"> F  </i>
   <i name="ENCUTGW">     -2.00000000</i>
   <i name="ENCUTGWSOFT">     -2.00000000</i>
   <i name="ENCUTLF">     -1.00000000</i>
   <i type="int" name="LMAXMP2">    -1</i>
   <i name="SCISSOR">      0.00000000</i>
   <i type="int" name="NOMEGA">     0</i>
   <i type="int" name="NOMEGAR">     0</i>
   <i type="int" name="NBANDSGW">    -1</i>
   <i type="int" name="NBANDSO">    -1</i>
   <i type="int" name="NBANDSV">    -1</i>
   <i type="int" name="NELM">   200</i>
   <i type="int" name="NELMHF">     1</i>
   <i type="int" name="DIM">     3</i>
   <i type="int" name="ANTIRES">     0</i>
   <i name="OMEGAMAX">    -30.00000000</i>
   <i name="OMEGAMIN">    -30.00000000</i>
   <i name="OMEGATL">   -200.00000000</i>
   <i type="int" name="OMEGAGRID">   140</i>
   <i name="CSHIFT">     -0.10000000</i>
   <i type="logical" name="SELFENERGY"> F  </i>
   <i type="logical" name="LSPECTRAL"> F  </i>
   <i type="logical" name="LSPECTRALGW"> F  </i>
   <i type="logical" name="LSINGLES"> F  </i>
   <i type="logical" name="LFERMIGW"> F  </i>
   <i type="logical" name="ODDONLYGW"> F  </i>
   <i type="logical" name="EVENONLYGW"> F  </i>
   <i type="int" name="NKREDLFX">     1</i>
   <i type="int" name="NKREDLFY">     1</i>
   <i type="int" name="NKREDLFZ">     1</i>
   <i type="int" name="MAXMEM">  2800</i>
   <i type="int" name="TELESCOPE">     0</i>
   <i type="int" name="TAUPAR">     1</i>
   <i type="int" name="OMEGAPAR">    -1</i>
   <i name="LAMBDA">      1.00000000</i>
  </separator>
  <separator name="External order field" >
   <i name="OFIELD_KAPPA">      0.00000000</i>
   <v name="OFIELD_K">      0.00000000      0.00000000      0.00000000</v>
   <i name="OFIELD_Q6_NEAR">      0.00000000</i>
   <i name="OFIELD_Q6_FAR">      0.00000000</i>
   <i name="OFIELD_A">      0.00000000</i>
  </separator>
 </parameters>
 <atominfo>
  <atoms>      10 </atoms>
  <types>       4 </types>
  <array name="atoms" >
   <dimension dim="1">ion</dimension>
   <field type="string">element</field>
   <field type="int">atomtype</field>
   <set>
    <rc><c>Li</c><c>   1</c></rc>
    <rc><c>Li</c><c>   1</c></rc>
    <rc><c>Li</c><c>   1</c></rc>
    <rc><c>Li</c><c>   1</c></rc>
    <rc><c>Fe</c><c>   2</c></rc>
    <rc><c>Fe</c><c>   2</c></rc>
    <rc><c>S </c><c>   3</c></rc>
    <rc><c>S </c><c>   3</c></rc>
    <rc><c>O </c><c>   4</c></rc>
    <rc><c>O </c><c>   4</c></rc>
   </set>
  </array>
  <array name="atomtypes" >
   <dimension dim="1">type</dimension>
   <field type="int">atomspertype</field>
   <field type="string">element</field>
   <field>mass</field>
   <field>valence</field>
   <field type="string">pseudopotential</field>
   <set>
    <rc><c>   4</c><c>Li</c><c>      7.01000000</c><c>      3.00000000</c><c>  PAW_PBE Li_sv 10Sep2004               </c></rc>
    <rc><c>   2</c><c>Fe</c><c>     55.84700000</c><c>     14.00000000</c><c>  PAW_PBE Fe_pv 02Aug2007               </c></rc>
    <rc><c>   2</c><c>S </c><c>     32.06600000</c><c>      6.00000000</c><c>  PAW_PBE S 06Sep2000                   </c></rc>
    <rc><c>   2</c><c>O </c><c>     16.00000000</c><c>      6.00000000</c><c>  PAW_PBE O 08Apr2002                   </c></rc>
   </set>
  </array>
 </atominfo>
 <structure name="initialpos" >
  <crystal>
   <varray name="basis" >
    <v>       3.97266230       0.00000000       0.00000000 </v>
    <v>       0.00000000       3.97266230       0.00000000 </v>
    <v>       0.00000000       0.00000000       7.70727713 </v>
   </varray>
   <i name="volume">    121.63660027 </i>
   <varray name="rec_basis" >
    <v>       0.25172036       0.00000000       0.00000000 </v>
    <v>       0.00000000       0.25172036       0.00000000 </v>
    <v>       0.00000000       0.00000000       0.12974751 </v>
   </varray>
  </crystal>
  <varray name="positions" >
   <v>       0.50000000       0.50000000       0.75000000 </v>
   <v>       0.50000000       0.50000000       0.25000000 </v>
   <v>       0.50000000       0.00000000       0.50000000 </v>
   <v>       0.00000000       0.50000000       0.00000000 </v>
   <v>       0.50000000       0.00000000       0.00000000 </v>
   <v>       0.00000000       0.50000000       0.50000000 </v>
   <v>       0.00000000       0.00000000       0.75000000 </v>
   <v>       0.00000000       0.00000000       0.25000000 </v>
   <v>       0.50000000       0.50000000       0.00000000 </v>
   <v>       0.50000000       0.50000000       0.50000000 </v>
  </varray>
 </structure>
 <calculation>
  <scstep>
   <time name="dav">   13.85   14.71</time>
   <time name="total">   14.42   15.36</time>
   <energy>
    <i name="alphaZ">    161.20963598 </i>
    <i name="ewald">  -4202.21483435 </i>
    <i name="hartreedc">  -2313.07546016 </i>
    <i name="XCdc">    276.68312212 </i>
    <i name="pawpsdc">   5444.54584303 </i>
    <i name="pawaedc">  -5664.88307330 </i>
    <i name="eentropy">     -0.00370777 </i>
    <i name="bandstr">   -593.78665313 </i>
    <i name="atom">   7144.33031577 </i>
    <i name="e_fr_energy">    252.80518819 </i>
    <i name="e_wo_entrp">    252.80889596 </i>
    <i name="e_0_energy">    252.80704207 </i>
   </energy>
  </scstep>
  <scstep>
   <time name="dav">   19.22   20.34</time>
   <time name="total">   19.24   20.36</time>
   <energy>
    <i name="e_fr_energy">    -48.72731981 </i>
    <i name="e_wo_entrp">    -48.72063324 </i>
    <i name="e_0_energy">    -48.72397652 </i>
   </energy>
  </scstep>
  <scstep>
   <time name="dav">   15.67   16.73</time>
   <time name="total">   15.69   16.77</time>
   <energy>
    <i name="e_fr_energy">    -56.25602697 </i>
    <i name="e_wo_entrp">    -56.24859672 </i>
    <i name="e_0_energy">    -56.25231184 </i>
   </energy>
  </scstep>
  <scstep>
   <time name="dav">   25.11   27.09</time>
   <time name="total">   25.14   27.12</time>
   <energy>
    <i name="e_fr_energy">    -56.52928626 </i>
    <i name="e_wo_entrp">    -56.52205389 </i>
    <i name="e_0_energy">    -56.52567007 </i>
   </energy>
  </scstep>
  <scstep>
   <time name="dav">   15.38   16.57</time>
   <time name="total">   15.67   16.86</time>
   <energy>
    <i name="e_fr_energy">    -56.53025471 </i>
    <i name="e_wo_entrp">    -56.52302159 </i>
    <i name="e_0_energy">    -56.52663815 </i>
   </energy>
  </scstep>
  <scstep>
   <time name="dav">   14.85   16.04</time>
   <time name="total">   15.76   16.98</time>
   <energy>
    <i name="e_fr_energy">    -49.57857594 </i>
    <i name="e_wo_entrp">    -49.57023075 </i>
    <i name="e_0_energy">    -49.57440335 </i>
   </energy>
  </scstep>
  <scstep>
   <time name="dav">   13.71   14.56</time>
   <time name="total">   14.58   15.47</time>
   <energy>
    <i name="e_fr_energy">    -50.59932363 </i>
    <i name="e_wo_entrp">    -50.59932363 </i>
    <i name="e_0_energy">    -50.59932363 </i>
   </energy>
  </scstep>
  <scstep>
   <time name="dav">   16.92   18.04</time>
   <time name="total">   17.78   18.91</time>
   <energy>
    <i name="e_fr_energy">    -51.04742061 </i>
    <i name="e_wo_entrp">    -51.04742061 </i>
    <i name="e_0_energy">    -51.04742061 </i>
   </energy>
  </scstep>
  <scstep>
   <time name="dav">   19.66   20.77</time>
   <time name="total">   20.54   21.66</time>
   <energy>
    <i name="e_fr_energy">    -51.27152429 </i>
    <i name="e_wo_entrp">    -51.27152429 </i>
    <i name="e_0_energy">    -51.27152429 </i>
   </energy>
  </scstep>
  <scstep>
   <time name="dav">   21.31   22.81</time>
   <time name="total">   22.13   23.74</time>
   <energy>
    <i name="e_fr_energy">    -51.29903167 </i>
    <i name="e_wo_entrp">    -51.29903167 </i>
    <i name="e_0_energy">    -51.29903167 </i>
   </energy>
  </scstep>
  <scstep>
   <time name="dav">   14.55   15.39</time>
   <time name="total">   15.39   16.32</time>
   <energy>
    <i name="e_fr_energy">    -51.30400813 </i>
    <i name="e_wo_entrp">    -51.30400813 </i>
    <i name="e_0_energy">    -51.30400813 </i>
   </energy>
  </scstep>
  <scstep>
   <time name="dav">   18.15   19.48</time>
   <time name="total">   19.03   20.38</time>
   <energy>
    <i name="e_fr_energy">    -51.30529134 </i>
    <i name="e_wo_entrp">    -51.30529134 </i>
    <i name="e_0_energy">    -51.30529134 </i>
   </energy>
  </scstep>
  <scstep>
   <time name="dav">   12.20   12.80</time>
   <time name="total">   13.00   13.69</time>
   <energy>
    <i name="e_fr_energy">    -51.30550394 </i>
    <i name="e_wo_entrp">    -51.30550394 </i>
    <i name="e_0_energy">    -51.30550394 </i>
   </energy>
  </scstep>
  <scstep>
   <time name="dav">   18.47   19.70</time>
   <time name="total">   19.32   20.57</time>
   <energy>
    <i name="e_fr_energy">    -51.30554902 </i>
    <i name="e_wo_entrp">    -51.30554902 </i>
    <i name="e_0_energy">    -51.30554902 </i>
   </energy>
  </scstep>
  <scstep>
   <time name="dav">   13.11   13.80</time>
   <time name="total">   13.97   14.67</time>
   <energy>
    <i name="e_fr_energy">    -51.30556250 </i>
    <i name="e_wo_entrp">    -51.30556250 </i>
    <i name="e_0_energy">    -51.30556250 </i>
   </energy>
  </scstep>
  <scstep>
   <time name="dav">   18.17   18.86</time>
   <time name="total">   19.01   19.75</time>
   <energy>
    <i name="e_fr_energy">    -51.30556317 </i>
    <i name="e_wo_entrp">    -51.30556317 </i>
    <i name="e_0_energy">    -51.30556317 </i>
   </energy>
  </scstep>
  <scstep>
   <time name="dav">   13.19   13.86</time>
   <time name="total">   13.99   14.74</time>
   <energy>
    <i name="e_fr_energy">    -51.30556327 </i>
    <i name="e_wo_entrp">    -51.30556327 </i>
    <i name="e_0_energy">    -51.30556327 </i>
   </energy>
  </scstep>
  <scstep>
   <time name="dav">   17.42   18.28</time>
   <time name="total">   18.27   19.16</time>
   <energy>
    <i name="e_fr_energy">    -51.30556330 </i>
    <i name="e_wo_entrp">    -51.30556330 </i>
    <i name="e_0_energy">    -51.30556330 </i>
   </energy>
  </scstep>
  <scstep>
   <time name="dav">   14.66   15.63</time>
   <time name="total">   15.47   16.52</time>
   <energy>
    <i name="e_fr_energy">    -51.30556333 </i>
    <i name="e_wo_entrp">    -51.30556333 </i>
    <i name="e_0_energy">    -51.30556333 </i>
   </energy>
  </scstep>
  <scstep>
   <time name="dav">   10.27   10.80</time>
   <time name="total">   11.10   11.68</time>
   <energy>
    <i name="e_fr_energy">    -51.30556335 </i>
    <i name="e_wo_entrp">    -51.30556335 </i>
    <i name="e_0_energy">    -51.30556335 </i>
   </energy>
  </scstep>
  <scstep>
   <time name="dav">    6.61    7.11</time>
   <time name="total">    7.48    7.99</time>
   <energy>
    <i name="e_fr_energy">    -51.30556336 </i>
    <i name="e_wo_entrp">    -51.30556336 </i>
    <i name="e_0_energy">    -51.30556336 </i>
   </energy>
  </scstep>
  <scstep>
   <time name="dav">    7.02    7.50</time>
   <time name="total">    7.62    8.11</time>
   <energy>
    <i name="alphaZ">    161.20963598 </i>
    <i name="ewald">  -4202.21483435 </i>
    <i name="hartreedc">  -2262.28834990 </i>
    <i name="XCdc">    274.86941782 </i>
    <i name="pawpsdc">   6770.69229930 </i>
    <i name="pawaedc">  -6996.67332717 </i>
    <i name="eentropy">     -0.00000000 </i>
    <i name="bandstr">   -941.23072082 </i>
    <i name="atom">   7144.33031577 </i>
    <i name="e_fr_energy">    -51.30556337 </i>
    <i name="e_wo_entrp">    -51.30556337 </i>
    <i name="e_0_energy">    -51.30556337 </i>
   </energy>
  </scstep>
  <structure>
   <crystal>
    <varray name="basis" >
     <v>       3.97266230       0.00000000       0.00000000 </v>
     <v>       0.00000000       3.97266230       0.00000000 </v>
     <v>       0.00000000       0.00000000       7.70727713 </v>
    </varray>
    <i name="volume">    121.63660027 </i>
    <varray name="rec_basis" >
     <v>       0.25172036       0.00000000       0.00000000 </v>
     <v>       0.00000000       0.25172036       0.00000000 </v>
     <v>       0.00000000       0.00000000       0.12974751 </v>
    </varray>
   </crystal>
   <varray name="positions" >
    <v>       0.50000000       0.50000000       0.75000000 </v>
    <v>       0.50000000       0.50000000       0.25000000 </v>
    <v>       0.50000000       0.00000000       0.50000000 </v>
    <v>       0.00000000       0.50000000       0.00000000 </v>
    <v>       0.50000000       0.00000000       0.00000000 </v>
    <v>       0.00000000       0.50000000       0.50000000 </v>
    <v>       0.00000000       0.00000000       0.75000000 </v>
    <v>       0.00000000       0.00000000       0.25000000 </v>
    <v>       0.50000000       0.50000000       0.00000000 </v>
    <v>       0.50000000       0.50000000       0.50000000 </v>
   </varray>
  </structure>
  <varray name="forces" >
   <v>       0.00000002      -0.00000003      -0.00000077 </v>
   <v>      -0.00000002       0.00000003       0.00000077 </v>
   <v>       0.00000000       0.00000000       0.00000000 </v>
   <v>      -0.00000000       0.00000000       0.00000000 </v>
   <v>       0.00000000       0.00000000      -0.00000000 </v>
   <v>       0.00000000      -0.00000000       0.00000000 </v>
   <v>       0.00000000      -0.00000000      -0.00000477 </v>
   <v>      -0.00000000       0.00000000       0.00000477 </v>
   <v>      -0.00000000      -0.00000000      -0.00000000 </v>
   <v>      -0.00000000      -0.00000000       0.00000000 </v>
  </varray>
  <varray name="stress" >
   <v>       0.00680303      -0.00000911       0.00000263 </v>
   <v>      -0.00000884       0.00654612       0.00000159 </v>
   <v>       0.00000211       0.00000153       0.00183534 </v>
  </varray>
  <energy>
   <i name="e_fr_energy">    -51.30556337 </i>
   <i name="e_wo_entrp">    -51.30556337 </i>
   <i name="e_0_energy">     -0.00000000 </i>
  </energy>
  <scstep>
   <time name="total">    4.18    4.21</time>
   <energy>
    <i name="e_fr_energy">   -193.02972355 </i>
    <i name="e_wo_entrp">   -193.02972355 </i>
    <i name="e_0_energy">   -193.02972355 </i>
   </energy>
  </scstep>
  <scstep>
   <time name="total">    6.32    6.50</time>
   <energy>
    <i name="e_fr_energy">   -261.45963600 </i>
    <i name="e_wo_entrp">   -261.45963600 </i>
    <i name="e_0_energy">   -261.45963600 </i>
   </energy>
  </scstep>
  <scstep>
   <time name="total">    6.73    6.97</time>
   <energy>
    <i name="e_fr_energy">   -262.52330484 </i>
    <i name="e_wo_entrp">   -262.52330484 </i>
    <i name="e_0_energy">   -262.52330484 </i>
   </energy>
  </scstep>
  <scstep>
   <time name="total">    5.83    5.99</time>
   <energy>
    <i name="e_fr_energy">   -262.91863935 </i>
    <i name="e_wo_entrp">   -262.91863935 </i>
    <i name="e_0_energy">   -262.91863935 </i>
   </energy>
  </scstep>
  <scstep>
   <time name="total">    5.98    6.17</time>
   <energy>
    <i name="e_fr_energy">   -263.06638313 </i>
    <i name="e_wo_entrp">   -263.06638313 </i>
    <i name="e_0_energy">   -263.06638313 </i>
   </energy>
  </scstep>
  <scstep>
   <time name="total">    6.01    6.17</time>
   <energy>
    <i name="e_fr_energy">   -263.10775409 </i>
    <i name="e_wo_entrp">   -263.10775409 </i>
    <i name="e_0_energy">   -263.10775409 </i>
   </energy>
  </scstep>
  <scstep>
   <time name="total">    5.45    5.66</time>
   <energy>
    <i name="e_fr_energy">   -263.12170813 </i>
    <i name="e_wo_entrp">   -263.12170813 </i>
    <i name="e_0_energy">   -263.12170813 </i>
   </energy>
  </scstep>
  <scstep>
   <time name="total">    5.41    5.50</time>
   <energy>
    <i name="e_fr_energy">   -263.12669168 </i>
    <i name="e_wo_entrp">   -263.12669168 </i>
    <i name="e_0_energy">   -263.12669168 </i>
   </energy>
  </scstep>
  <scstep>
   <time name="total">    5.68    5.82</time>
   <energy>
    <i name="e_fr_energy">   -263.12865501 </i>
    <i name="e_wo_entrp">   -263.12865501 </i>
    <i name="e_0_energy">   -263.12865501 </i>
   </energy>
  </scstep>
  <scstep>
   <time name="total">    5.98    6.19</time>
   <energy>
    <i name="e_fr_energy">   -263.12941772 </i>
    <i name="e_wo_entrp">   -263.12941772 </i>
    <i name="e_0_energy">   -263.12941772 </i>
   </energy>
  </scstep>
  <scstep>
   <time name="total">    5.94    6.27</time>
   <energy>
    <i name="e_fr_energy">   -263.12975609 </i>
    <i name="e_wo_entrp">   -263.12975609 </i>
    <i name="e_0_energy">   -263.12975609 </i>
   </energy>
  </scstep>
  <scstep>
   <time name="total">    5.68    5.80</time>
   <energy>
    <i name="e_fr_energy">   -263.12990053 </i>
    <i name="e_wo_entrp">   -263.12990053 </i>
    <i name="e_0_energy">   -263.12990053 </i>
   </energy>
  </scstep>
  <scstep>
   <time name="total">    5.43    5.50</time>
   <energy>
    <i name="e_fr_energy">   -263.12996868 </i>
    <i name="e_wo_entrp">   -263.12996868 </i>
    <i name="e_0_energy">   -263.12996868 </i>
   </energy>
  </scstep>
  <scstep>
   <time name="total">    5.53    5.67</time>
   <energy>
    <i name="e_fr_energy">   -263.12999393 </i>
    <i name="e_wo_entrp">   -263.12999393 </i>
    <i name="e_0_energy">   -263.12999393 </i>
   </energy>
  </scstep>
  <scstep>
   <time name="total">    5.54    5.63</time>
   <energy>
    <i name="e_fr_energy">   -263.13000713 </i>
    <i name="e_wo_entrp">   -263.13000713 </i>
    <i name="e_0_energy">   -263.13000713 </i>
   </energy>
  </scstep>
  <scstep>
   <time name="total">    5.83    6.08</time>
   <energy>
    <i name="e_fr_energy">   -263.13001338 </i>
    <i name="e_wo_entrp">   -263.13001338 </i>
    <i name="e_0_energy">   -263.13001338 </i>
   </energy>
  </scstep>
  <scstep>
   <time name="total">    5.69    5.84</time>
   <energy>
    <i name="e_fr_energy">   -263.13001609 </i>
    <i name="e_wo_entrp">   -263.13001609 </i>
    <i name="e_0_energy">   -263.13001609 </i>
   </energy>
  </scstep>
  <scstep>
   <time name="total">    5.92    6.19</time>
   <energy>
    <i name="e_fr_energy">   -263.13001737 </i>
    <i name="e_wo_entrp">   -263.13001737 </i>
    <i name="e_0_energy">   -263.13001737 </i>
   </energy>
  </scstep>
  <scstep>
   <time name="total">    5.33    5.48</time>
   <energy>
    <i name="e_fr_energy">   -263.13001814 </i>
    <i name="e_wo_entrp">   -263.13001814 </i>
    <i name="e_0_energy">   -263.13001814 </i>
   </energy>
  </scstep>
  <scstep>
   <time name="total">    5.26    5.29</time>
   <energy>
    <i name="e_fr_energy">   -263.13001840 </i>
    <i name="e_wo_entrp">   -263.13001840 </i>
    <i name="e_0_energy">   -263.13001840 </i>
   </energy>
  </scstep>
  <scstep>
   <time name="total">    5.22    5.29</time>
   <energy>
    <i name="e_fr_energy">   -263.13001855 </i>
    <i name="e_wo_entrp">   -263.13001855 </i>
    <i name="e_0_energy">   -263.13001855 </i>
   </energy>
  </scstep>
  <scstep>
   <time name="total">    5.19    5.35</time>
   <energy>
    <i name="e_fr_energy">   -263.13001854 </i>
    <i name="e_wo_entrp">   -263.13001854 </i>
    <i name="e_0_energy">   -263.13001854 </i>
   </energy>
  </scstep>
  <scstep>
   <time name="total">    5.41    5.60</time>
   <energy>
    <i name="e_fr_energy">   -263.13001860 </i>
    <i name="e_wo_entrp">   -263.13001860 </i>
    <i name="e_0_energy">   -263.13001860 </i>
   </energy>
  </scstep>
  <scstep>
   <time name="total">    5.37    5.54</time>
   <energy>
    <i name="e_fr_energy">   -263.13001859 </i>
    <i name="e_wo_entrp">   -263.13001859 </i>
    <i name="e_0_energy">   -263.13001859 </i>
   </energy>
  </scstep>
  <scstep>
   <time name="total">    5.54    5.86</time>
   <energy>
    <i name="e_fr_energy">   -263.13001865 </i>
    <i name="e_wo_entrp">   -263.13001865 </i>
    <i name="e_0_energy">   -263.13001865 </i>
   </energy>
  </scstep>
  <scstep>
   <time name="total">    5.09    5.19</time>
   <energy>
    <i name="e_fr_energy">   -263.13001858 </i>
    <i name="e_wo_entrp">   -263.13001858 </i>
    <i name="e_0_energy">   -263.13001858 </i>
   </energy>
  </scstep>
  <scstep>
   <time name="total">    4.83    5.03</time>
   <energy>
    <i name="e_fr_energy">   -263.13001866 </i>
    <i name="e_wo_entrp">   -263.13001866 </i>
    <i name="e_0_energy">   -263.13001866 </i>
   </energy>
  </scstep>
  <scstep>
   <time name="total">    4.26    4.38</time>
   <energy>
    <i name="e_fr_energy">   -192.94668556 </i>
    <i name="e_wo_entrp">   -192.94668556 </i>
    <i name="e_0_energy">   -192.94668556 </i>
   </energy>
  </scstep>
  <scstep>
   <time name="total">    6.11    6.39</time>
   <energy>
    <i name="e_fr_energy">   -261.46168684 </i>
    <i name="e_wo_entrp">   -261.46168684 </i>
    <i name="e_0_energy">   -261.46168684 </i>
   </energy>
  </scstep>
  <scstep>
   <time name="total">    6.59    6.73</time>
   <energy>
    <i name="e_fr_energy">   -262.52282198 </i>
    <i name="e_wo_entrp">   -262.52282198 </i>
    <i name="e_0_energy">   -262.52282198 </i>
   </energy>
  </scstep>
  <scstep>
   <time name="total">    6.08    6.22</time>
   <energy>
    <i name="e_fr_energy">   -262.91748754 </i>
    <i name="e_wo_entrp">   -262.91748754 </i>
    <i name="e_0_energy">   -262.91748754 </i>
   </energy>
  </scstep>
  <scstep>
   <time name="total">    6.19    6.37</time>
   <energy>
    <i name="e_fr_energy">   -263.06566506 </i>
    <i name="e_wo_entrp">   -263.06566506 </i>
    <i name="e_0_energy">   -263.06566506 </i>
   </energy>
  </scstep>
  <scstep>
   <time name="total">    5.38    5.49</time>
   <energy>
    <i name="e_fr_energy">   -263.10711534 </i>
    <i name="e_wo_entrp">   -263.10711534 </i>
    <i name="e_0_energy">   -263.10711534 </i>
   </energy>
  </scstep>
  <scstep>
   <time name="total">    5.37    5.47</time>
   <energy>
    <i name="e_fr_energy">   -263.12111439 </i>
    <i name="e_wo_entrp">   -263.12111439 </i>
    <i name="e_0_energy">   -263.12111439 </i>
   </energy>
  </scstep>
  <scstep>
   <time name="total">    5.47    5.67</time>
   <energy>
    <i name="e_fr_energy">   -263.12612943 </i>
    <i name="e_wo_entrp">   -263.12612943 </i>
    <i name="e_0_energy">   -263.12612943 </i>
   </energy>
  </scstep>
  <scstep>
   <time name="total">    5.60    5.69</time>
   <energy>
    <i name="e_fr_energy">   -263.12814662 </i>
    <i name="e_wo_entrp">   -263.12814662 </i>
    <i name="e_0_energy">   -263.12814662 </i>
   </energy>
  </scstep>
  <scstep>
   <time name="total">    5.84    5.97</time>
   <energy>
    <i name="e_fr_energy">   -263.12881791 </i>
    <i name="e_wo_entrp">   -263.12881791 </i>
    <i name="e_0_energy">   -263.12881791 </i>
   </energy>
  </scstep>
  <scstep>
   <time name="total">    5.60    6.10</time>
   <energy>
    <i name="e_fr_energy">   -263.12917328 </i>
    <i name="e_wo_entrp">   -263.12917328 </i>
    <i name="e_0_energy">   -263.12917328 </i>
   </energy>
  </scstep>
  <scstep>
   <time name="total">    5.98    6.18</time>
   <energy>
    <i name="e_fr_energy">   -263.12931307 </i>
    <i name="e_wo_entrp">   -263.12931307 </i>
    <i name="e_0_energy">   -263.12931307 </i>
   </energy>
  </scstep>
  <scstep>
   <time name="total">    5.59    5.78</time>
   <energy>
    <i name="e_fr_energy">   -263.12939845 </i>
    <i name="e_wo_entrp">   -263.12939845 </i>
    <i name="e_0_energy">   -263.12939845 </i>
   </energy>
  </scstep>
  <scstep>
   <time name="total">    5.44    5.61</time>
   <energy>
    <i name="e_fr_energy">   -263.12942179 </i>
    <i name="e_wo_entrp">   -263.12942179 </i>
    <i name="e_0_energy">   -263.12942179 </i>
   </energy>
  </scstep>
  <scstep>
   <time name="total">    5.50    5.55</time>
   <energy>
    <i name="e_fr_energy">   -263.12944469 </i>
    <i name="e_wo_entrp">   -263.12944469 </i>
    <i name="e_0_energy">   -263.12944469 </i>
   </energy>
  </scstep>
  <scstep>
   <time name="total">    5.36    5.41</time>
   <energy>
    <i name="e_fr_energy">   -263.12944509 </i>
    <i name="e_wo_entrp">   -263.12944509 </i>
    <i name="e_0_energy">   -263.12944509 </i>
   </energy>
  </scstep>
  <scstep>
   <time name="total">    5.72    5.88</time>
   <energy>
    <i name="e_fr_energy">   -263.12945188 </i>
    <i name="e_wo_entrp">   -263.12945188 </i>
    <i name="e_0_energy">   -263.12945188 </i>
   </energy>
  </scstep>
  <scstep>
   <time name="total">    6.00    6.24</time>
   <energy>
    <i name="e_fr_energy">   -263.12945136 </i>
    <i name="e_wo_entrp">   -263.12945136 </i>
    <i name="e_0_energy">   -263.12945136 </i>
   </energy>
  </scstep>
  <scstep>
   <time name="total">    5.68    5.84</time>
   <energy>
    <i name="e_fr_energy">   -263.12945272 </i>
    <i name="e_wo_entrp">   -263.12945272 </i>
    <i name="e_0_energy">   -263.12945272 </i>
   </energy>
  </scstep>
  <scstep>
   <time name="total">    5.30    5.47</time>
   <energy>
    <i name="e_fr_energy">   -263.12945342 </i>
    <i name="e_wo_entrp">   -263.12945342 </i>
    <i name="e_0_energy">   -263.12945342 </i>
   </energy>
  </scstep>
  <scstep>
   <time name="total">    5.26    5.35</time>
   <energy>
    <i name="e_fr_energy">   -263.12945210 </i>
    <i name="e_wo_entrp">   -263.12945210 </i>
    <i name="e_0_energy">   -263.12945210 </i>
   </energy>
  </scstep>
  <scstep>
   <time name="total">    5.30    5.33</time>
   <energy>
    <i name="e_fr_energy">   -263.12945407 </i>
    <i name="e_wo_entrp">   -263.12945407 </i>
    <i name="e_0_energy">   -263.12945407 </i>
   </energy>
  </scstep>
  <scstep>
   <time name="total">    5.04    5.13</time>
   <energy>
    <i name="e_fr_energy">   -263.12945176 </i>
    <i name="e_wo_entrp">   -263.12945176 </i>
    <i name="e_0_energy">   -263.12945176 </i>
   </energy>
  </scstep>
  <scstep>
   <time name="total">    5.41    5.56</time>
   <energy>
    <i name="e_fr_energy">   -263.12945464 </i>
    <i name="e_wo_entrp">   -263.12945464 </i>
    <i name="e_0_energy">   -263.12945464 </i>
   </energy>
  </scstep>
  <scstep>
   <time name="total">    5.51    5.69</time>
   <energy>
    <i name="e_fr_energy">   -263.12945137 </i>
    <i name="e_wo_entrp">   -263.12945137 </i>
    <i name="e_0_energy">   -263.12945137 </i>
   </energy>
  </scstep>
  <scstep>
   <time name="total">    5.21    5.29</time>
   <energy>
    <i name="e_fr_energy">   -263.12945518 </i>
    <i name="e_wo_entrp">   -263.12945518 </i>
    <i name="e_0_energy">   -263.12945518 </i>
   </energy>
  </scstep>
  <scstep>
   <time name="total">    5.03    5.15</time>
   <energy>
    <i name="e_fr_energy">   -263.12945086 </i>
    <i name="e_wo_entrp">   -263.12945086 </i>
    <i name="e_0_energy">   -263.12945086 </i>
   </energy>
  </scstep>
  <scstep>
   <time name="total">    5.04    5.21</time>
   <energy>
    <i name="e_fr_energy">   -263.12945572 </i>
    <i name="e_wo_entrp">   -263.12945572 </i>
    <i name="e_0_energy">   -263.12945572 </i>
   </energy>
  </scstep>
  <scstep>
   <time name="total">    4.00    4.20</time>
   <energy>
    <i name="e_fr_energy">   -188.98584528 </i>
    <i name="e_wo_entrp">   -188.98584528 </i>
    <i name="e_0_energy">   -188.98584528 </i>
   </energy>
  </scstep>
  <scstep>
   <time name="total">    6.09    6.22</time>
   <energy>
    <i name="e_fr_energy">   -262.60711127 </i>
    <i name="e_wo_entrp">   -262.60711127 </i>
    <i name="e_0_energy">   -262.60711127 </i>
   </energy>
  </scstep>
  <scstep>
   <time name="total">    6.74    6.95</time>
   <energy>
    <i name="e_fr_energy">   -263.74763428 </i>
    <i name="e_wo_entrp">   -263.74763428 </i>
    <i name="e_0_energy">   -263.74763428 </i>
   </energy>
  </scstep>
  <scstep>
   <time name="total">    6.07    6.23</time>
   <energy>
    <i name="e_fr_energy">   -264.32284832 </i>
    <i name="e_wo_entrp">   -264.32284832 </i>
    <i name="e_0_energy">   -264.32284832 </i>
   </energy>
  </scstep>
  <scstep>
   <time name="total">    5.51    5.88</time>
   <energy>
    <i name="e_fr_energy">   -264.50426003 </i>
    <i name="e_wo_entrp">   -264.50426003 </i>
    <i name="e_0_energy">   -264.50426003 </i>
   </energy>
  </scstep>
  <scstep>
   <time name="total">    5.92    6.12</time>
   <energy>
    <i name="e_fr_energy">   -264.55267854 </i>
    <i name="e_wo_entrp">   -264.55267854 </i>
    <i name="e_0_energy">   -264.55267854 </i>
   </energy>
  </scstep>
  <scstep>
   <time name="total">    5.51    5.61</time>
   <energy>
    <i name="e_fr_energy">   -264.56985242 </i>
    <i name="e_wo_entrp">   -264.56985242 </i>
    <i name="e_0_energy">   -264.56985242 </i>
   </energy>
  </scstep>
  <scstep>
   <time name="total">    5.52    5.70</time>
   <energy>
    <i name="e_fr_energy">   -264.57620779 </i>
    <i name="e_wo_entrp">   -264.57620779 </i>
    <i name="e_0_energy">   -264.57620779 </i>
   </energy>
  </scstep>
  <scstep>
   <time name="total">    5.55    5.70</time>
   <energy>
    <i name="e_fr_energy">   -264.57868877 </i>
    <i name="e_wo_entrp">   -264.57868877 </i>
    <i name="e_0_energy">   -264.57868877 </i>
   </energy>
  </scstep>
  <scstep>
   <time name="total">    5.74    5.91</time>
   <energy>
    <i name="e_fr_energy">   -264.57975340 </i>
    <i name="e_wo_entrp">   -264.57975340 </i>
    <i name="e_0_energy">   -264.57975340 </i>
   </energy>
  </scstep>
  <scstep>
   <time name="total">    5.86    6.04</time>
   <energy>
    <i name="e_fr_energy">   -264.58019834 </i>
    <i name="e_wo_entrp">   -264.58019834 </i>
    <i name="e_0_energy">   -264.58019834 </i>
   </energy>
  </scstep>
  <scstep>
   <time name="total">    6.10    6.36</time>
   <energy>
    <i name="e_fr_energy">   -264.58040774 </i>
    <i name="e_wo_entrp">   -264.58040774 </i>
    <i name="e_0_energy">   -264.58040774 </i>
   </energy>
  </scstep>
  <scstep>
   <time name="total">    5.73    6.09</time>
   <energy>
    <i name="e_fr_energy">   -264.58050633 </i>
    <i name="e_wo_entrp">   -264.58050633 </i>
    <i name="e_0_energy">   -264.58050633 </i>
   </energy>
  </scstep>
  <scstep>
   <time name="total">    5.39    5.45</time>
   <energy>
    <i name="e_fr_energy">   -264.58054865 </i>
    <i name="e_wo_entrp">   -264.58054865 </i>
    <i name="e_0_energy">   -264.58054865 </i>
   </energy>
  </scstep>
  <scstep>
   <time name="total">    5.50    5.65</time>
   <energy>
    <i name="e_fr_energy">   -264.58056674 </i>
    <i name="e_wo_entrp">   -264.58056674 </i>
    <i name="e_0_energy">   -264.58056674 </i>
   </energy>
  </scstep>
  <scstep>
   <time name="total">    5.51    5.62</time>
   <energy>
    <i name="e_fr_energy">   -264.58057462 </i>
    <i name="e_wo_entrp">   -264.58057462 </i>
    <i name="e_0_energy">   -264.58057462 </i>
   </energy>
  </scstep>
  <scstep>
   <time name="total">    5.60    5.84</time>
   <energy>
    <i name="e_fr_energy">   -264.58057824 </i>
    <i name="e_wo_entrp">   -264.58057824 </i>
    <i name="e_0_energy">   -264.58057824 </i>
   </energy>
  </scstep>
  <scstep>
   <time name="total">    5.67    5.85</time>
   <energy>
    <i name="e_fr_energy">   -264.58057970 </i>
    <i name="e_wo_entrp">   -264.58057970 </i>
    <i name="e_0_energy">   -264.58057970 </i>
   </energy>
  </scstep>
  <scstep>
   <time name="total">    5.86    6.07</time>
   <energy>
    <i name="e_fr_energy">   -264.58058112 </i>
    <i name="e_wo_entrp">   -264.58058112 </i>
    <i name="e_0_energy">   -264.58058112 </i>
   </energy>
  </scstep>
  <scstep>
   <time name="total">    5.39    5.52</time>
   <energy>
    <i name="e_fr_energy">   -264.58058106 </i>
    <i name="e_wo_entrp">   -264.58058106 </i>
    <i name="e_0_energy">   -264.58058106 </i>
   </energy>
  </scstep>
  <scstep>
   <time name="total">    5.06    5.32</time>
   <energy>
    <i name="e_fr_energy">   -264.58058141 </i>
    <i name="e_wo_entrp">   -264.58058141 </i>
    <i name="e_0_energy">   -264.58058141 </i>
   </energy>
  </scstep>
  <scstep>
   <time name="total">    5.00    5.13</time>
   <energy>
    <i name="e_fr_energy">   -264.58058140 </i>
    <i name="e_wo_entrp">   -264.58058140 </i>
    <i name="e_0_energy">   -264.58058140 </i>
   </energy>
  </scstep>
  <scstep>
   <time name="total">    5.21    5.36</time>
   <energy>
    <i name="e_fr_energy">   -264.58058168 </i>
    <i name="e_wo_entrp">   -264.58058168 </i>
    <i name="e_0_energy">   -264.58058168 </i>
   </energy>
  </scstep>
  <scstep>
   <time name="total">    5.44    5.65</time>
   <energy>
    <i name="e_fr_energy">   -264.58058123 </i>
    <i name="e_wo_entrp">   -264.58058123 </i>
    <i name="e_0_energy">   -264.58058123 </i>
   </energy>
  </scstep>
  <scstep>
   <time name="total">    5.23    5.40</time>
   <energy>
    <i name="e_fr_energy">   -264.58058118 </i>
    <i name="e_wo_entrp">   -264.58058118 </i>
    <i name="e_0_energy">   -264.58058118 </i>
   </energy>
  </scstep>
  <scstep>
   <time name="total">    4.93    5.13</time>
   <energy>
    <i name="e_fr_energy">   -264.58058123 </i>
    <i name="e_wo_entrp">   -264.58058123 </i>
    <i name="e_0_energy">   -264.58058123 </i>
   </energy>
  </scstep>
  <scstep>
   <time name="total">    4.97    5.14</time>
   <energy>
    <i name="e_fr_energy">   -264.58058113 </i>
    <i name="e_wo_entrp">   -264.58058113 </i>
    <i name="e_0_energy">   -264.58058113 </i>
   </energy>
  </scstep>
  <scstep>
   <time name="total">    6.82    7.13</time>
   <energy>
    <i name="e_fr_energy">     -1.17801758 </i>
    <i name="e_wo_entrp">     -1.17801758 </i>
    <i name="e_0_energy">     -1.17801758 </i>
   </energy>
  </scstep>
  <scstep>
   <time name="total">    7.58    7.94</time>
   <energy>
    <i name="e_fr_energy">     -1.60590866 </i>
    <i name="e_wo_entrp">     -1.60590866 </i>
    <i name="e_0_energy">     -1.60590866 </i>
   </energy>
  </scstep>
  <scstep>
   <time name="total">    8.78    9.01</time>
   <energy>
    <i name="e_fr_energy">     -1.61769593 </i>
    <i name="e_wo_entrp">     -1.61769593 </i>
    <i name="e_0_energy">     -1.61769593 </i>
   </energy>
  </scstep>
  <scstep>
   <time name="total">    8.59    8.90</time>
   <energy>
    <i name="e_fr_energy">     -1.62084513 </i>
    <i name="e_wo_entrp">     -1.62084513 </i>
    <i name="e_0_energy">     -1.62084513 </i>
   </energy>
  </scstep>
  <scstep>
   <time name="total">    8.23    8.44</time>
   <energy>
    <i name="e_fr_energy">     -1.62166697 </i>
    <i name="e_wo_entrp">     -1.62166697 </i>
    <i name="e_0_energy">     -1.62166697 </i>
   </energy>
  </scstep>
  <scstep>
   <time name="total">    8.32    8.59</time>
   <energy>
    <i name="e_fr_energy">     -1.62187578 </i>
    <i name="e_wo_entrp">     -1.62187578 </i>
    <i name="e_0_energy">     -1.62187578 </i>
   </energy>
  </scstep>
  <scstep>
   <time name="total">    8.39    8.59</time>
   <energy>
    <i name="e_fr_energy">     -1.62194190 </i>
    <i name="e_wo_entrp">     -1.62194190 </i>
    <i name="e_0_energy">     -1.62194190 </i>
   </energy>
  </scstep>
  <scstep>
   <time name="total">    9.41    9.69</time>
   <energy>
    <i name="e_fr_energy">     -1.62196319 </i>
    <i name="e_wo_entrp">     -1.62196319 </i>
    <i name="e_0_energy">     -1.62196319 </i>
   </energy>
  </scstep>
  <scstep>
   <time name="total">    8.22    8.43</time>
   <energy>
    <i name="e_fr_energy">     -1.62197102 </i>
    <i name="e_wo_entrp">     -1.62197102 </i>
    <i name="e_0_energy">     -1.62197102 </i>
   </energy>
  </scstep>
  <scstep>
   <time name="total">    8.24    8.47</time>
   <energy>
    <i name="e_fr_energy">     -1.62197368 </i>
    <i name="e_wo_entrp">     -1.62197368 </i>
    <i name="e_0_energy">     -1.62197368 </i>
   </energy>
  </scstep>
  <scstep>
   <time name="total">    8.08    8.24</time>
   <energy>
    <i name="e_fr_energy">     -1.62197489 </i>
    <i name="e_wo_entrp">     -1.62197489 </i>
    <i name="e_0_energy">     -1.62197489 </i>
   </energy>
  </scstep>
  <scstep>
   <time name="total">    8.79    9.19</time>
   <energy>
    <i name="e_fr_energy">     -1.62197540 </i>
    <i name="e_wo_entrp">     -1.62197540 </i>
    <i name="e_0_energy">     -1.62197540 </i>
   </energy>
  </scstep>
  <scstep>
   <time name="total">    8.62    8.90</time>
   <energy>
    <i name="e_fr_energy">     -1.62197564 </i>
    <i name="e_wo_entrp">     -1.62197564 </i>
    <i name="e_0_energy">     -1.62197564 </i>
   </energy>
  </scstep>
  <scstep>
   <time name="total">    7.58    8.12</time>
   <energy>
    <i name="e_fr_energy">     -1.62197577 </i>
    <i name="e_wo_entrp">     -1.62197577 </i>
    <i name="e_0_energy">     -1.62197577 </i>
   </energy>
  </scstep>
  <scstep>
   <time name="total">    7.96    8.25</time>
   <energy>
    <i name="e_fr_energy">     -1.62197582 </i>
    <i name="e_wo_entrp">     -1.62197582 </i>
    <i name="e_0_energy">     -1.62197582 </i>
   </energy>
  </scstep>
  <scstep>
   <time name="total">    7.71    8.04</time>
   <energy>
    <i name="e_fr_energy">     -1.62197584 </i>
    <i name="e_wo_entrp">     -1.62197584 </i>
    <i name="e_0_energy">     -1.62197584 </i>
   </energy>
  </scstep>
  <scstep>
   <time name="total">    8.10    8.45</time>
   <energy>
    <i name="e_fr_energy">     -1.62197585 </i>
    <i name="e_wo_entrp">     -1.62197585 </i>
    <i name="e_0_energy">     -1.62197585 </i>
   </energy>
  </scstep>
  <scstep>
   <time name="total">    8.18    8.24</time>
   <energy>
    <i name="e_fr_energy">     -1.62197586 </i>
    <i name="e_wo_entrp">     -1.62197586 </i>
    <i name="e_0_energy">     -1.62197586 </i>
   </energy>
  </scstep>
  <scstep>
   <time name="total">    7.29    7.41</time>
   <energy>
    <i name="e_fr_energy">     -1.17801179 </i>
    <i name="e_wo_entrp">     -1.17801179 </i>
    <i name="e_0_energy">     -1.17801179 </i>
   </energy>
  </scstep>
  <scstep>
   <time name="total">    7.42    7.44</time>
   <energy>
    <i name="e_fr_energy">     -1.60586977 </i>
    <i name="e_wo_entrp">     -1.60586977 </i>
    <i name="e_0_energy">     -1.60586977 </i>
   </energy>
  </scstep>
  <scstep>
   <time name="total">    7.69    7.69</time>
   <energy>
    <i name="e_fr_energy">     -1.61767636 </i>
    <i name="e_wo_entrp">     -1.61767636 </i>
    <i name="e_0_energy">     -1.61767636 </i>
   </energy>
  </scstep>
  <scstep>
   <time name="total">    8.10    8.10</time>
   <energy>
    <i name="e_fr_energy">     -1.62083150 </i>
    <i name="e_wo_entrp">     -1.62083150 </i>
    <i name="e_0_energy">     -1.62083150 </i>
   </energy>
  </scstep>
  <scstep>
   <time name="total">    8.78    8.85</time>
   <energy>
    <i name="e_fr_energy">     -1.62165626 </i>
    <i name="e_wo_entrp">     -1.62165626 </i>
    <i name="e_0_energy">     -1.62165626 </i>
   </energy>
  </scstep>
  <scstep>
   <time name="total">    8.32    8.60</time>
   <energy>
    <i name="e_fr_energy">     -1.62186586 </i>
    <i name="e_wo_entrp">     -1.62186586 </i>
    <i name="e_0_energy">     -1.62186586 </i>
   </energy>
  </scstep>
  <scstep>
   <time name="total">    7.93    8.04</time>
   <energy>
    <i name="e_fr_energy">     -1.62193220 </i>
    <i name="e_wo_entrp">     -1.62193220 </i>
    <i name="e_0_energy">     -1.62193220 </i>
   </energy>
  </scstep>
  <scstep>
   <time name="total">    7.98    7.98</time>
   <energy>
    <i name="e_fr_energy">     -1.62195355 </i>
    <i name="e_wo_entrp">     -1.62195355 </i>
    <i name="e_0_energy">     -1.62195355 </i>
   </energy>
  </scstep>
  <scstep>
   <time name="total">    8.38    8.39</time>
   <energy>
    <i name="e_fr_energy">     -1.62196141 </i>
    <i name="e_wo_entrp">     -1.62196141 </i>
    <i name="e_0_energy">     -1.62196141 </i>
   </energy>
  </scstep>
  <scstep>
   <time name="total">    8.29    8.41</time>
   <energy>
    <i name="e_fr_energy">     -1.62196408 </i>
    <i name="e_wo_entrp">     -1.62196408 </i>
    <i name="e_0_energy">     -1.62196408 </i>
   </energy>
  </scstep>
  <scstep>
   <time name="total">    7.94    8.44</time>
   <energy>
    <i name="e_fr_energy">     -1.62196530 </i>
    <i name="e_wo_entrp">     -1.62196530 </i>
    <i name="e_0_energy">     -1.62196530 </i>
   </energy>
  </scstep>
  <scstep>
   <time name="total">    7.76    7.94</time>
   <energy>
    <i name="e_fr_energy">     -1.62196581 </i>
    <i name="e_wo_entrp">     -1.62196581 </i>
    <i name="e_0_energy">     -1.62196581 </i>
   </energy>
  </scstep>
  <scstep>
   <time name="total">    7.94    7.95</time>
   <energy>
    <i name="e_fr_energy">     -1.62196606 </i>
    <i name="e_wo_entrp">     -1.62196606 </i>
    <i name="e_0_energy">     -1.62196606 </i>
   </energy>
  </scstep>
  <scstep>
   <time name="total">    8.33    8.34</time>
   <energy>
    <i name="e_fr_energy">     -1.62196618 </i>
    <i name="e_wo_entrp">     -1.62196618 </i>
    <i name="e_0_energy">     -1.62196618 </i>
   </energy>
  </scstep>
  <scstep>
   <time name="total">    8.15    8.22</time>
   <energy>
    <i name="e_fr_energy">     -1.62196623 </i>
    <i name="e_wo_entrp">     -1.62196623 </i>
    <i name="e_0_energy">     -1.62196623 </i>
   </energy>
  </scstep>
  <scstep>
   <time name="total">    7.98    8.20</time>
   <energy>
    <i name="e_fr_energy">     -1.62196625 </i>
    <i name="e_wo_entrp">     -1.62196625 </i>
    <i name="e_0_energy">     -1.62196625 </i>
   </energy>
  </scstep>
  <scstep>
   <time name="total">    7.74    7.90</time>
   <energy>
    <i name="e_fr_energy">     -1.62196627 </i>
    <i name="e_wo_entrp">     -1.62196627 </i>
    <i name="e_0_energy">     -1.62196627 </i>
   </energy>
  </scstep>
  <scstep>
   <time name="total">    7.84    7.85</time>
   <energy>
    <i name="e_fr_energy">     -1.62196627 </i>
    <i name="e_wo_entrp">     -1.62196627 </i>
    <i name="e_0_energy">     -1.62196627 </i>
   </energy>
  </scstep>
  <scstep>
   <time name="total">    7.56    7.56</time>
   <energy>
    <i name="e_fr_energy">     -1.12390137 </i>
    <i name="e_wo_entrp">     -1.12390137 </i>
    <i name="e_0_energy">     -1.12390137 </i>
   </energy>
  </scstep>
  <scstep>
   <time name="total">    7.40    7.47</time>
   <energy>
    <i name="e_fr_energy">     -1.67121598 </i>
    <i name="e_wo_entrp">     -1.67121598 </i>
    <i name="e_0_energy">     -1.67121598 </i>
   </energy>
  </scstep>
  <scstep>
   <time name="total">    7.90    8.19</time>
   <energy>
    <i name="e_fr_energy">     -1.68268323 </i>
    <i name="e_wo_entrp">     -1.68268323 </i>
    <i name="e_0_energy">     -1.68268323 </i>
   </energy>
  </scstep>
  <scstep>
   <time name="total">    7.92    8.16</time>
   <energy>
    <i name="e_fr_energy">     -1.68584425 </i>
    <i name="e_wo_entrp">     -1.68584425 </i>
    <i name="e_0_energy">     -1.68584425 </i>
   </energy>
  </scstep>
  <scstep>
   <time name="total">    8.03    8.03</time>
   <energy>
    <i name="e_fr_energy">     -1.68671045 </i>
    <i name="e_wo_entrp">     -1.68671045 </i>
    <i name="e_0_energy">     -1.68671045 </i>
   </energy>
  </scstep>
  <scstep>
   <time name="total">    8.23    8.24</time>
   <energy>
    <i name="e_fr_energy">     -1.68691256 </i>
    <i name="e_wo_entrp">     -1.68691256 </i>
    <i name="e_0_energy">     -1.68691256 </i>
   </energy>
  </scstep>
  <scstep>
   <time name="total">    8.75    8.84</time>
   <energy>
    <i name="e_fr_energy">     -1.68696957 </i>
    <i name="e_wo_entrp">     -1.68696957 </i>
    <i name="e_0_energy">     -1.68696957 </i>
   </energy>
  </scstep>
  <scstep>
   <time name="total">    8.30    8.52</time>
   <energy>
    <i name="e_fr_energy">     -1.68698500 </i>
    <i name="e_wo_entrp">     -1.68698500 </i>
    <i name="e_0_energy">     -1.68698500 </i>
   </energy>
  </scstep>
  <scstep>
   <time name="total">    7.97    8.27</time>
   <energy>
    <i name="e_fr_energy">     -1.68698993 </i>
    <i name="e_wo_entrp">     -1.68698993 </i>
    <i name="e_0_energy">     -1.68698993 </i>
   </energy>
  </scstep>
  <scstep>
   <time name="total">    7.99    8.00</time>
   <energy>
    <i name="e_fr_energy">     -1.68699146 </i>
    <i name="e_wo_entrp">     -1.68699146 </i>
    <i name="e_0_energy">     -1.68699146 </i>
   </energy>
  </scstep>
  <scstep>
   <time name="total">    8.39    8.39</time>
   <energy>
    <i name="e_fr_energy">     -1.68699207 </i>
    <i name="e_wo_entrp">     -1.68699207 </i>
    <i name="e_0_energy">     -1.68699207 </i>
   </energy>
  </scstep>
  <scstep>
   <time name="total">    8.54    8.79</time>
   <energy>
    <i name="e_fr_energy">     -1.68699228 </i>
    <i name="e_wo_entrp">     -1.68699228 </i>
    <i name="e_0_energy">     -1.68699228 </i>
   </energy>
  </scstep>
  <scstep>
   <time name="total">    8.11    8.38</time>
   <energy>
    <i name="e_fr_energy">     -1.68699238 </i>
    <i name="e_wo_entrp">     -1.68699238 </i>
    <i name="e_0_energy">     -1.68699238 </i>
   </energy>
  </scstep>
  <scstep>
   <time name="total">    7.76    7.90</time>
   <energy>
    <i name="e_fr_energy">     -1.68699241 </i>
    <i name="e_wo_entrp">     -1.68699241 </i>
    <i name="e_0_energy">     -1.68699241 </i>
   </energy>
  </scstep>
  <scstep>
   <time name="total">    8.13    8.13</time>
   <energy>
    <i name="e_fr_energy">     -1.68699243 </i>
    <i name="e_wo_entrp">     -1.68699243 </i>
    <i name="e_0_energy">     -1.68699243 </i>
   </energy>
  </scstep>
  <scstep>
   <time name="total">    8.36    8.39</time>
   <energy>
    <i name="e_fr_energy">     -1.68699244 </i>
    <i name="e_wo_entrp">     -1.68699244 </i>
    <i name="e_0_energy">     -1.68699244 </i>
   </energy>
  </scstep>
  <varray name="epsilon_rpa" >
   <v>       5.82587267       0.00000030      -0.00000008 </v>
   <v>       0.00000025       5.82584432      -0.00000045 </v>
   <v>       0.00000015      -0.00000084       6.01931717 </v>
  </varray>
  <scstep>
   <time name="total">    7.13    7.22</time>
   <energy>
    <i name="e_fr_energy">     -1.17801758 </i>
    <i name="e_wo_entrp">     -1.17801758 </i>
    <i name="e_0_energy">     -1.17801758 </i>
   </energy>
  </scstep>
  <scstep>
   <time name="total">    8.07    8.21</time>
   <energy>
    <i name="e_fr_energy">     -1.60590866 </i>
    <i name="e_wo_entrp">     -1.60590866 </i>
    <i name="e_0_energy">     -1.60590866 </i>
   </energy>
  </scstep>
  <scstep>
   <time name="total">    8.13    8.14</time>
   <energy>
    <i name="e_fr_energy">     -1.57156130 </i>
    <i name="e_wo_entrp">     -1.57156130 </i>
    <i name="e_0_energy">     -1.57156130 </i>
   </energy>
  </scstep>
  <scstep>
   <time name="total">    8.83    8.83</time>
   <energy>
    <i name="e_fr_energy">     -1.61099235 </i>
    <i name="e_wo_entrp">     -1.61099235 </i>
    <i name="e_0_energy">     -1.61099235 </i>
   </energy>
  </scstep>
  <scstep>
   <time name="total">    9.22    9.26</time>
   <energy>
    <i name="e_fr_energy">     -1.64503799 </i>
    <i name="e_wo_entrp">     -1.64503799 </i>
    <i name="e_0_energy">     -1.64503799 </i>
   </energy>
  </scstep>
  <scstep>
   <time name="total">    8.65    8.99</time>
   <energy>
    <i name="e_fr_energy">     -1.66991617 </i>
    <i name="e_wo_entrp">     -1.66991617 </i>
    <i name="e_0_energy">     -1.66991617 </i>
   </energy>
  </scstep>
  <scstep>
   <time name="total">    8.26    8.41</time>
   <energy>
    <i name="e_fr_energy">     -1.67187574 </i>
    <i name="e_wo_entrp">     -1.67187574 </i>
    <i name="e_0_energy">     -1.67187574 </i>
   </energy>
  </scstep>
  <scstep>
   <time name="total">    8.49    8.49</time>
   <energy>
    <i name="e_fr_energy">     -1.67395748 </i>
    <i name="e_wo_entrp">     -1.67395748 </i>
    <i name="e_0_energy">     -1.67395748 </i>
   </energy>
  </scstep>
  <scstep>
   <time name="total">    8.95    8.96</time>
   <energy>
    <i name="e_fr_energy">     -1.67562568 </i>
    <i name="e_wo_entrp">     -1.67562568 </i>
    <i name="e_0_energy">     -1.67562568 </i>
   </energy>
  </scstep>
  <scstep>
   <time name="total">    9.28    9.39</time>
   <energy>
    <i name="e_fr_energy">     -1.67573363 </i>
    <i name="e_wo_entrp">     -1.67573363 </i>
    <i name="e_0_energy">     -1.67573363 </i>
   </energy>
  </scstep>
  <scstep>
   <time name="total">    8.85    9.14</time>
   <energy>
    <i name="e_fr_energy">     -1.67576626 </i>
    <i name="e_wo_entrp">     -1.67576626 </i>
    <i name="e_0_energy">     -1.67576626 </i>
   </energy>
  </scstep>
  <scstep>
   <time name="total">    8.35    8.53</time>
   <energy>
    <i name="e_fr_energy">     -1.67578943 </i>
    <i name="e_wo_entrp">     -1.67578943 </i>
    <i name="e_0_energy">     -1.67578943 </i>
   </energy>
  </scstep>
  <scstep>
   <time name="total">    8.77    8.78</time>
   <energy>
    <i name="e_fr_energy">     -1.67578983 </i>
    <i name="e_wo_entrp">     -1.67578983 </i>
    <i name="e_0_energy">     -1.67578983 </i>
   </energy>
  </scstep>
  <scstep>
   <time name="total">    9.24    9.29</time>
   <energy>
    <i name="e_fr_energy">     -1.67579042 </i>
    <i name="e_wo_entrp">     -1.67579042 </i>
    <i name="e_0_energy">     -1.67579042 </i>
   </energy>
  </scstep>
  <scstep>
   <time name="total">    9.20    9.49</time>
   <energy>
    <i name="e_fr_energy">     -1.67578974 </i>
    <i name="e_wo_entrp">     -1.67578974 </i>
    <i name="e_0_energy">     -1.67578974 </i>
   </energy>
  </scstep>
  <scstep>
   <time name="total">    8.33    8.41</time>
   <energy>
    <i name="e_fr_energy">     -1.67578992 </i>
    <i name="e_wo_entrp">     -1.67578992 </i>
    <i name="e_0_energy">     -1.67578992 </i>
   </energy>
  </scstep>
  <scstep>
   <time name="total">    8.48    8.49</time>
   <energy>
    <i name="e_fr_energy">     -1.67578922 </i>
    <i name="e_wo_entrp">     -1.67578922 </i>
    <i name="e_0_energy">     -1.67578922 </i>
   </energy>
  </scstep>
  <scstep>
   <time name="total">    8.88    8.89</time>
   <energy>
    <i name="e_fr_energy">     -1.67578883 </i>
    <i name="e_wo_entrp">     -1.67578883 </i>
    <i name="e_0_energy">     -1.67578883 </i>
   </energy>
  </scstep>
  <scstep>
   <time name="total">    9.03    9.11</time>
   <energy>
    <i name="e_fr_energy">     -1.67578875 </i>
    <i name="e_wo_entrp">     -1.67578875 </i>
    <i name="e_0_energy">     -1.67578875 </i>
   </energy>
  </scstep>
  <scstep>
   <time name="total">    8.63    8.92</time>
   <energy>
    <i name="e_fr_energy">     -1.67578899 </i>
    <i name="e_wo_entrp">     -1.67578899 </i>
    <i name="e_0_energy">     -1.67578899 </i>
   </energy>
  </scstep>
  <scstep>
   <time name="total">    8.13    8.13</time>
   <energy>
    <i name="e_fr_energy">     -1.67578900 </i>
    <i name="e_wo_entrp">     -1.67578900 </i>
    <i name="e_0_energy">     -1.67578900 </i>
   </energy>
  </scstep>
  <scstep>
   <time name="total">    7.70    8.04</time>
   <energy>
    <i name="e_fr_energy">     -1.17801179 </i>
    <i name="e_wo_entrp">     -1.17801179 </i>
    <i name="e_0_energy">     -1.17801179 </i>
   </energy>
  </scstep>
  <scstep>
   <time name="total">    8.06    8.19</time>
   <energy>
    <i name="e_fr_energy">     -1.60586977 </i>
    <i name="e_wo_entrp">     -1.60586977 </i>
    <i name="e_0_energy">     -1.60586977 </i>
   </energy>
  </scstep>
  <scstep>
   <time name="total">    8.27    8.28</time>
   <energy>
    <i name="e_fr_energy">     -1.57154260 </i>
    <i name="e_wo_entrp">     -1.57154260 </i>
    <i name="e_0_energy">     -1.57154260 </i>
   </energy>
  </scstep>
  <scstep>
   <time name="total">    8.97    8.97</time>
   <energy>
    <i name="e_fr_energy">     -1.61097224 </i>
    <i name="e_wo_entrp">     -1.61097224 </i>
    <i name="e_0_energy">     -1.61097224 </i>
   </energy>
  </scstep>
  <scstep>
   <time name="total">    8.98    9.19</time>
   <energy>
    <i name="e_fr_energy">     -1.64503092 </i>
    <i name="e_wo_entrp">     -1.64503092 </i>
    <i name="e_0_energy">     -1.64503092 </i>
   </energy>
  </scstep>
  <scstep>
   <time name="total">    8.61    8.80</time>
   <energy>
    <i name="e_fr_energy">     -1.66990998 </i>
    <i name="e_wo_entrp">     -1.66990998 </i>
    <i name="e_0_energy">     -1.66990998 </i>
   </energy>
  </scstep>
  <scstep>
   <time name="total">    8.30    8.34</time>
   <energy>
    <i name="e_fr_energy">     -1.67186828 </i>
    <i name="e_wo_entrp">     -1.67186828 </i>
    <i name="e_0_energy">     -1.67186828 </i>
   </energy>
  </scstep>
  <scstep>
   <time name="total">    8.60    8.61</time>
   <energy>
    <i name="e_fr_energy">     -1.67394719 </i>
    <i name="e_wo_entrp">     -1.67394719 </i>
    <i name="e_0_energy">     -1.67394719 </i>
   </energy>
  </scstep>
  <scstep>
   <time name="total">    8.93    9.05</time>
   <energy>
    <i name="e_fr_energy">     -1.67561481 </i>
    <i name="e_wo_entrp">     -1.67561481 </i>
    <i name="e_0_energy">     -1.67561481 </i>
   </energy>
  </scstep>
  <scstep>
   <time name="total">    9.08    9.40</time>
   <energy>
    <i name="e_fr_energy">     -1.67572345 </i>
    <i name="e_wo_entrp">     -1.67572345 </i>
    <i name="e_0_energy">     -1.67572345 </i>
   </energy>
  </scstep>
  <scstep>
   <time name="total">    8.48    8.55</time>
   <energy>
    <i name="e_fr_energy">     -1.67575613 </i>
    <i name="e_wo_entrp">     -1.67575613 </i>
    <i name="e_0_energy">     -1.67575613 </i>
   </energy>
  </scstep>
  <scstep>
   <time name="total">    8.55    8.56</time>
   <energy>
    <i name="e_fr_energy">     -1.67577932 </i>
    <i name="e_wo_entrp">     -1.67577932 </i>
    <i name="e_0_energy">     -1.67577932 </i>
   </energy>
  </scstep>
  <scstep>
   <time name="total">    9.12    9.12</time>
   <energy>
    <i name="e_fr_energy">     -1.67577955 </i>
    <i name="e_wo_entrp">     -1.67577955 </i>
    <i name="e_0_energy">     -1.67577955 </i>
   </energy>
  </scstep>
  <scstep>
   <time name="total">    9.20    9.39</time>
   <energy>
    <i name="e_fr_energy">     -1.67578015 </i>
    <i name="e_wo_entrp">     -1.67578015 </i>
    <i name="e_0_energy">     -1.67578015 </i>
   </energy>
  </scstep>
  <scstep>
   <time name="total">    8.64    8.91</time>
   <energy>
    <i name="e_fr_energy">     -1.67577948 </i>
    <i name="e_wo_entrp">     -1.67577948 </i>
    <i name="e_0_energy">     -1.67577948 </i>
   </energy>
  </scstep>
  <scstep>
   <time name="total">    8.42    8.50</time>
   <energy>
    <i name="e_fr_energy">     -1.67577965 </i>
    <i name="e_wo_entrp">     -1.67577965 </i>
    <i name="e_0_energy">     -1.67577965 </i>
   </energy>
  </scstep>
  <scstep>
   <time name="total">    8.90    8.90</time>
   <energy>
    <i name="e_fr_energy">     -1.67577917 </i>
    <i name="e_wo_entrp">     -1.67577917 </i>
    <i name="e_0_energy">     -1.67577917 </i>
   </energy>
  </scstep>
  <scstep>
   <time name="total">    9.23    9.30</time>
   <energy>
    <i name="e_fr_energy">     -1.67577886 </i>
    <i name="e_wo_entrp">     -1.67577886 </i>
    <i name="e_0_energy">     -1.67577886 </i>
   </energy>
  </scstep>
  <scstep>
   <time name="total">    8.52    8.84</time>
   <energy>
    <i name="e_fr_energy">     -1.67577879 </i>
    <i name="e_wo_entrp">     -1.67577879 </i>
    <i name="e_0_energy">     -1.67577879 </i>
   </energy>
  </scstep>
  <scstep>
   <time name="total">    8.28    8.46</time>
   <energy>
    <i name="e_fr_energy">     -1.67577889 </i>
    <i name="e_wo_entrp">     -1.67577889 </i>
    <i name="e_0_energy">     -1.67577889 </i>
   </energy>
  </scstep>
  <scstep>
   <time name="total">    7.54    8.14</time>
   <energy>
    <i name="e_fr_energy">     -1.12390137 </i>
    <i name="e_wo_entrp">     -1.12390137 </i>
    <i name="e_0_energy">     -1.12390137 </i>
   </energy>
  </scstep>
  <scstep>
   <time name="total">    7.81    8.09</time>
[...]
       <r>    -0.5792     4.0052    18.9785 </r>
       <r>    -0.3350     4.2535    20.0173 </r>
       <r>    -0.0907     6.1935    21.5299 </r>
       <r>     0.1535     4.3390    22.5897 </r>
       <r>     0.3977     2.9894    23.3198 </r>
       <r>     0.6420     3.5721    24.1922 </r>
       <r>     0.8862     2.7820    24.8716 </r>
       <r>     1.1304     3.5281    25.7333 </r>
       <r>     1.3747     5.4727    27.0700 </r>
       <r>     1.6189     4.7140    28.2213 </r>
       <r>     1.8631     3.4612    29.0666 </r>
       <r>     2.1074     2.2019    29.6044 </r>
       <r>     2.3516     2.4190    30.1952 </r>
       <r>     2.5958     2.6287    30.8372 </r>
       <r>     2.8401     3.3490    31.6551 </r>
       <r>     3.0843     3.4980    32.5094 </r>
       <r>     3.3285     2.9641    33.2334 </r>
       <r>     3.5728     3.6643    34.1283 </r>
       <r>     3.8170     2.4769    34.7333 </r>
       <r>     4.0612     3.0154    35.4697 </r>
       <r>     4.3055     0.9965    35.7131 </r>
       <r>     4.5497     1.0695    35.9743 </r>
       <r>     4.7939     0.1052    36.0000 </r>
       <r>     5.0382     0.0000    36.0000 </r>
       <r>     5.2824     0.0000    36.0000 </r>
       <r>     5.5266     0.0000    36.0000 </r>
       <r>     5.7709     0.0000    36.0000 </r>
       <r>     6.0151     0.0000    36.0000 </r>
       <r>     6.2593     0.0000    36.0000 </r>
       <r>     6.5036     0.0000    36.0000 </r>
       <r>     6.7478     0.0000    36.0000 </r>
       <r>     6.9920     0.0000    36.0000 </r>
       <r>     7.2363     0.0201    36.0049 </r>
       <r>     7.4805     0.0008    36.0051 </r>
       <r>     7.7247     0.1198    36.0344 </r>
       <r>     7.9690     0.0700    36.0514 </r>
       <r>     8.2132     0.4211    36.1543 </r>
       <r>     8.4574     0.6889    36.3225 </r>
       <r>     8.7017     1.0887    36.5884 </r>
       <r>     8.9459     1.2687    36.8983 </r>
       <r>     9.1901     1.3145    37.2193 </r>
       <r>     9.4344     2.7062    37.8803 </r>
       <r>     9.6786     1.9436    38.3550 </r>
       <r>     9.9228     1.1274    38.6303 </r>
       <r>    10.1671     1.2041    38.9244 </r>
       <r>    10.4113     1.0768    39.1874 </r>
       <r>    10.6555     3.2262    39.9753 </r>
       <r>    10.8998     1.7861    40.4115 </r>
       <r>    11.1440     3.1588    41.1830 </r>
       <r>    11.3882     3.0392    41.9253 </r>
       <r>    11.6325     3.3596    42.7458 </r>
       <r>    11.8767     2.5727    43.3742 </r>
       <r>    12.1209     2.4072    43.9621 </r>
       <r>    12.3652     2.2870    44.5206 </r>
       <r>    12.6094     2.1737    45.0515 </r>
       <r>    12.8536     1.8356    45.4998 </r>
       <r>    13.0979     1.6101    45.8931 </r>
       <r>    13.3421     1.5099    46.2619 </r>
       <r>    13.5863     2.7772    46.9401 </r>
       <r>    13.8306     2.2865    47.4986 </r>
       <r>    14.0748     1.0595    47.7573 </r>
       <r>    14.3190     0.5386    47.8889 </r>
       <r>    14.5633     0.2679    47.9543 </r>
       <r>    14.8075     0.1455    47.9899 </r>
       <r>    15.0517     0.0414    48.0000 </r>
       <r>    15.2960     0.0000    48.0000 </r>
       <r>    15.5402     0.0000    48.0000 </r>
       <r>    15.7844     0.0000    48.0000 </r>
       <r>    16.0287     0.0000    48.0000 </r>
       <r>    16.2729     0.0000    48.0000 </r>
       <r>    16.5171     0.0000    48.0000 </r>
       <r>    16.7614     0.0000    48.0000 </r>
       <r>    17.0056     0.0000    48.0000 </r>
       <r>    17.2498     0.0000    48.0000 </r>
       <r>    17.4941     0.0000    48.0000 </r>
       <r>    17.7383     0.0000    48.0000 </r>
       <r>    17.9825     0.0000    48.0000 </r>
       <r>    18.2268     0.0000    48.0000 </r>
       <r>    18.4710     0.0000    48.0000 </r>
      </set>
      <set comment="spin 2">
       <r>   -54.7990     0.0000     0.0000 </r>
       <r>   -54.5548     0.0000     0.0000 </r>
       <r>   -54.3105     0.0000     0.0000 </r>
       <r>   -54.0663     0.0000     0.0000 </r>
       <r>   -53.8221     0.0000     0.0000 </r>
       <r>   -53.5778     0.0000     0.0000 </r>
       <r>   -53.3336     0.0000     0.0000 </r>
       <r>   -53.0894     0.0000     0.0000 </r>
       <r>   -52.8451     0.0000     0.0000 </r>
       <r>   -52.6009     0.0000     0.0000 </r>
       <r>   -52.3567     0.0000     0.0000 </r>
       <r>   -52.1124     0.0000     0.0000 </r>
       <r>   -51.8682     0.0000     0.0000 </r>
       <r>   -51.6240     0.0000     0.0000 </r>
       <r>   -51.3797     0.0000     0.0000 </r>
       <r>   -51.1355     0.0000     0.0000 </r>
       <r>   -50.8913     0.0000     0.0000 </r>
       <r>   -50.6470     0.0000     0.0000 </r>
       <r>   -50.4028     0.0000     0.0000 </r>
       <r>   -50.1586     0.0000     0.0000 </r>
       <r>   -49.9143     0.0000     0.0000 </r>
       <r>   -49.6701     0.0000     0.0000 </r>
       <r>   -49.4259     0.0000     0.0000 </r>
       <r>   -49.1816     0.0000     0.0000 </r>
       <r>   -48.9374     0.0000     0.0000 </r>
       <r>   -48.6932     0.0000     0.0000 </r>
       <r>   -48.4489     0.0000     0.0000 </r>
       <r>   -48.2047     0.0000     0.0000 </r>
       <r>   -47.9605     0.0000     0.0000 </r>
       <r>   -47.7162     0.0000     0.0000 </r>
       <r>   -47.4720     0.0000     0.0000 </r>
       <r>   -47.2278     0.0000     0.0000 </r>
       <r>   -46.9835     0.0000     0.0000 </r>
       <r>   -46.7393     2.8711     0.7012 </r>
       <r>   -46.4951     5.3179     2.0000 </r>
       <r>   -46.2508    16.2415     5.9668 </r>
       <r>   -46.0066     0.1361     6.0000 </r>
       <r>   -45.7624     0.0000     6.0000 </r>
       <r>   -45.5181     0.0000     6.0000 </r>
       <r>   -45.2739     0.0000     6.0000 </r>
       <r>   -45.0297     0.0000     6.0000 </r>
       <r>   -44.7854     0.0000     6.0000 </r>
       <r>   -44.5412     0.0000     6.0000 </r>
       <r>   -44.2970     0.0000     6.0000 </r>
       <r>   -44.0527     0.0000     6.0000 </r>
       <r>   -43.8085     0.0000     6.0000 </r>
       <r>   -43.5643     0.0000     6.0000 </r>
       <r>   -43.3200     0.0000     6.0000 </r>
       <r>   -43.0758     0.0000     6.0000 </r>
       <r>   -42.8316     0.0000     6.0000 </r>
       <r>   -42.5873     0.0000     6.0000 </r>
       <r>   -42.3431     0.0000     6.0000 </r>
       <r>   -42.0989     0.0000     6.0000 </r>
       <r>   -41.8546     0.0000     6.0000 </r>
       <r>   -41.6104     0.0000     6.0000 </r>
       <r>   -41.3662     0.0000     6.0000 </r>
       <r>   -41.1219     0.0000     6.0000 </r>
       <r>   -40.8777     0.0000     6.0000 </r>
       <r>   -40.6335     0.0000     6.0000 </r>
       <r>   -40.3892     2.9007     6.7085 </r>
       <r>   -40.1450    13.4525     9.9940 </r>
       <r>   -39.9008     0.0246    10.0000 </r>
       <r>   -39.6565     0.0000    10.0000 </r>
       <r>   -39.4123     0.0000    10.0000 </r>
       <r>   -39.1681     0.0000    10.0000 </r>
       <r>   -38.9238     0.0000    10.0000 </r>
       <r>   -38.6796     0.0000    10.0000 </r>
       <r>   -38.4354     0.0000    10.0000 </r>
       <r>   -38.1911     0.0000    10.0000 </r>
       <r>   -37.9469     0.0000    10.0000 </r>
       <r>   -37.7027     0.0000    10.0000 </r>
       <r>   -37.4584     0.0000    10.0000 </r>
       <r>   -37.2142     0.0000    10.0000 </r>
       <r>   -36.9700     0.0000    10.0000 </r>
       <r>   -36.7257     0.0000    10.0000 </r>
       <r>   -36.4815     0.0000    10.0000 </r>
       <r>   -36.2373     0.0000    10.0000 </r>
       <r>   -35.9930     0.0000    10.0000 </r>
       <r>   -35.7488     0.0000    10.0000 </r>
       <r>   -35.5046     0.0000    10.0000 </r>
       <r>   -35.2603     0.0000    10.0000 </r>
       <r>   -35.0161     0.0000    10.0000 </r>
       <r>   -34.7719     0.0000    10.0000 </r>
       <r>   -34.5276     0.0000    10.0000 </r>
       <r>   -34.2834     0.0000    10.0000 </r>
       <r>   -34.0392     0.0000    10.0000 </r>
       <r>   -33.7949     0.0000    10.0000 </r>
       <r>   -33.5507     0.0000    10.0000 </r>
       <r>   -33.3065     0.0000    10.0000 </r>
       <r>   -33.0622     0.0000    10.0000 </r>
       <r>   -32.8180     0.0000    10.0000 </r>
       <r>   -32.5738     0.0000    10.0000 </r>
       <r>   -32.3295     0.0000    10.0000 </r>
       <r>   -32.0853     0.0000    10.0000 </r>
       <r>   -31.8411     0.0000    10.0000 </r>
       <r>   -31.5968     0.0000    10.0000 </r>
       <r>   -31.3526     0.0000    10.0000 </r>
       <r>   -31.1084     0.0000    10.0000 </r>
       <r>   -30.8641     0.0000    10.0000 </r>
       <r>   -30.6199     0.0000    10.0000 </r>
       <r>   -30.3757     0.0000    10.0000 </r>
       <r>   -30.1314     0.0000    10.0000 </r>
       <r>   -29.8872     0.0000    10.0000 </r>
       <r>   -29.6430     0.0000    10.0000 </r>
       <r>   -29.3987     0.0000    10.0000 </r>
       <r>   -29.1545     0.0000    10.0000 </r>
       <r>   -28.9103     0.0000    10.0000 </r>
       <r>   -28.6660     0.0000    10.0000 </r>
       <r>   -28.4218     0.0000    10.0000 </r>
       <r>   -28.1776     0.0000    10.0000 </r>
       <r>   -27.9333     0.0000    10.0000 </r>
       <r>   -27.6891     0.0000    10.0000 </r>
       <r>   -27.4449     0.0000    10.0000 </r>
       <r>   -27.2006     0.0000    10.0000 </r>
       <r>   -26.9564     0.0000    10.0000 </r>
       <r>   -26.7122     0.0000    10.0000 </r>
       <r>   -26.4679     0.0000    10.0000 </r>
       <r>   -26.2237     0.0000    10.0000 </r>
       <r>   -25.9795     0.0000    10.0000 </r>
       <r>   -25.7352     0.0000    10.0000 </r>
       <r>   -25.4910     0.0000    10.0000 </r>
       <r>   -25.2468     0.0000    10.0000 </r>
       <r>   -25.0025     0.0000    10.0000 </r>
       <r>   -24.7583     0.0000    10.0000 </r>
       <r>   -24.5141     0.0000    10.0000 </r>
       <r>   -24.2698     0.0000    10.0000 </r>
       <r>   -24.0256     0.0000    10.0000 </r>
       <r>   -23.7814     0.0000    10.0000 </r>
       <r>   -23.5371     0.0000    10.0000 </r>
       <r>   -23.2929     0.0000    10.0000 </r>
       <r>   -23.0487     0.0000    10.0000 </r>
       <r>   -22.8044     0.0000    10.0000 </r>
       <r>   -22.5602     0.0000    10.0000 </r>
       <r>   -22.3160     0.0000    10.0000 </r>
       <r>   -22.0717     0.0000    10.0000 </r>
       <r>   -21.8275     0.0000    10.0000 </r>
       <r>   -21.5833     0.0000    10.0000 </r>
       <r>   -21.3390     0.0000    10.0000 </r>
       <r>   -21.0948     0.0000    10.0000 </r>
       <r>   -20.8506     0.0000    10.0000 </r>
       <r>   -20.6063     0.0000    10.0000 </r>
       <r>   -20.3621     0.0000    10.0000 </r>
       <r>   -20.1179     0.0000    10.0000 </r>
       <r>   -19.8736     0.0000    10.0000 </r>
       <r>   -19.6294     0.0000    10.0000 </r>
       <r>   -19.3852     0.0000    10.0000 </r>
       <r>   -19.1409     0.0000    10.0000 </r>
       <r>   -18.8967     0.0000    10.0000 </r>
       <r>   -18.6525     0.0000    10.0000 </r>
       <r>   -18.4082     0.0000    10.0000 </r>
       <r>   -18.1640     0.0000    10.0000 </r>
       <r>   -17.9198     0.0000    10.0000 </r>
       <r>   -17.6755     0.0000    10.0000 </r>
       <r>   -17.4313     0.0000    10.0000 </r>
       <r>   -17.1871     0.0000    10.0000 </r>
       <r>   -16.9428     0.0000    10.0000 </r>
       <r>   -16.6986     0.0000    10.0000 </r>
       <r>   -16.4544     0.0000    10.0000 </r>
       <r>   -16.2101     0.0000    10.0000 </r>
       <r>   -15.9659     0.0000    10.0000 </r>
       <r>   -15.7217     0.0000    10.0000 </r>
       <r>   -15.4774     0.0000    10.0000 </r>
       <r>   -15.2332     0.0000    10.0000 </r>
       <r>   -14.9890     0.0000    10.0000 </r>
       <r>   -14.7447     0.0000    10.0000 </r>
       <r>   -14.5005     0.0000    10.0000 </r>
       <r>   -14.2563     0.0000    10.0000 </r>
       <r>   -14.0120     0.0000    10.0000 </r>
       <r>   -13.7678     0.0000    10.0000 </r>
       <r>   -13.5236     0.0000    10.0000 </r>
       <r>   -13.2793     2.0944    10.5115 </r>
       <r>   -13.0351     5.8903    11.9501 </r>
       <r>   -12.7909     0.2042    12.0000 </r>
       <r>   -12.5466     0.0000    12.0000 </r>
       <r>   -12.3024     0.0000    12.0000 </r>
       <r>   -12.0582     0.0000    12.0000 </r>
       <r>   -11.8139     0.0000    12.0000 </r>
       <r>   -11.5697     0.0000    12.0000 </r>
       <r>   -11.3255     0.0000    12.0000 </r>
       <r>   -11.0812     0.0000    12.0000 </r>
       <r>   -10.8370     0.0000    12.0000 </r>
       <r>   -10.5928     0.0000    12.0000 </r>
       <r>   -10.3485     0.0000    12.0000 </r>
       <r>   -10.1043     0.0000    12.0000 </r>
       <r>    -9.8601     0.0000    12.0000 </r>
       <r>    -9.6158     0.0000    12.0000 </r>
       <r>    -9.3716     0.0000    12.0000 </r>
       <r>    -9.1274     0.0000    12.0000 </r>
       <r>    -8.8831     0.0000    12.0000 </r>
       <r>    -8.6389     0.0000    12.0000 </r>
       <r>    -8.3947     0.0000    12.0000 </r>
       <r>    -8.1504     0.0000    12.0000 </r>
       <r>    -7.9062     0.0000    12.0000 </r>
       <r>    -7.6620     0.0000    12.0000 </r>
       <r>    -7.4177     0.0004    12.0001 </r>
       <r>    -7.1735     1.8802    12.4593 </r>
       <r>    -6.9293     3.8439    13.3981 </r>
       <r>    -6.6850     2.2743    13.9536 </r>
       <r>    -6.4408     0.1901    14.0000 </r>
       <r>    -6.1966     0.0000    14.0000 </r>
       <r>    -5.9523     0.0000    14.0000 </r>
       <r>    -5.7081     0.0000    14.0000 </r>
       <r>    -5.4639     0.0000    14.0000 </r>
       <r>    -5.2196     0.0000    14.0000 </r>
       <r>    -4.9754     0.0000    14.0000 </r>
       <r>    -4.7312     0.0000    14.0000 </r>
       <r>    -4.4869     0.0000    14.0000 </r>
       <r>    -4.2427     0.0000    14.0000 </r>
       <r>    -3.9985     0.0000    14.0000 </r>
       <r>    -3.7542     0.0000    14.0000 </r>
       <r>    -3.5100     0.0000    14.0000 </r>
       <r>    -3.2658     0.0000    14.0000 </r>
       <r>    -3.0215     0.0000    14.0000 </r>
       <r>    -2.7773     0.0000    14.0000 </r>
       <r>    -2.5331     0.0000    14.0000 </r>
       <r>    -2.2888     0.0000    14.0000 </r>
       <r>    -2.0446     0.0000    14.0000 </r>
       <r>    -1.8004     0.0000    14.0000 </r>
       <r>    -1.5561     0.0000    14.0000 </r>
       <r>    -1.3119     0.0000    14.0000 </r>
       <r>    -1.0677     0.0474    14.0116 </r>
       <r>    -0.8234     2.2083    14.5509 </r>
       <r>    -0.5792     0.6984    14.7215 </r>
       <r>    -0.3350     1.4829    15.0837 </r>
       <r>    -0.0907     0.3894    15.1788 </r>
       <r>     0.1535     1.6234    15.5753 </r>
       <r>     0.3977     4.1967    16.6002 </r>
       <r>     0.6420     5.0108    17.8240 </r>
       <r>     0.8862     5.8432    19.2511 </r>
       <r>     1.1304     3.0345    19.9923 </r>
       <r>     1.3747     0.5964    20.1379 </r>
       <r>     1.6189     2.6927    20.7956 </r>
       <r>     1.8631     2.8275    21.4861 </r>
       <r>     2.1074     2.7292    22.1527 </r>
       <r>     2.3516     1.1273    22.4280 </r>
       <r>     2.5958     3.4829    23.2787 </r>
       <r>     2.8401     3.4622    24.1243 </r>
       <r>     3.0843     4.6163    25.2517 </r>
       <r>     3.3285     2.4073    25.8397 </r>
       <r>     3.5728     2.3139    26.4048 </r>
       <r>     3.8170     4.9714    27.6190 </r>
       <r>     4.0612     1.5601    28.0000 </r>
       <r>     4.3055     0.0000    28.0000 </r>
       <r>     4.5497     0.0000    28.0000 </r>
       <r>     4.7939     0.0000    28.0000 </r>
       <r>     5.0382     0.0000    28.0000 </r>
       <r>     5.2824     0.0000    28.0000 </r>
       <r>     5.5266     0.0000    28.0000 </r>
       <r>     5.7709     0.0000    28.0000 </r>
       <r>     6.0151     0.0000    28.0000 </r>
       <r>     6.2593     0.0000    28.0000 </r>
       <r>     6.5036     0.0002    28.0001 </r>
       <r>     6.7478     1.5094    28.3687 </r>
       <r>     6.9920     4.9120    29.5684 </r>
       <r>     7.2363     3.8703    30.5136 </r>
       <r>     7.4805     4.0000    31.4905 </r>
       <r>     7.7247     3.4542    32.3342 </r>
       <r>     7.9690     5.7128    33.7294 </r>
       <r>     8.2132     4.9066    34.9278 </r>
       <r>     8.4574     2.9304    35.6435 </r>
       <r>     8.7017     1.5332    36.0179 </r>
       <r>     8.9459     0.3943    36.1142 </r>
       <r>     9.1901     0.6706    36.2780 </r>
       <r>     9.4344     0.6321    36.4324 </r>
       <r>     9.6786     1.6537    36.8363 </r>
       <r>     9.9228     1.8164    37.2799 </r>
       <r>    10.1671     2.8452    37.9748 </r>
       <r>    10.4113     2.3543    38.5498 </r>
       <r>    10.6555     1.8259    38.9958 </r>
       <r>    10.8998     1.5695    39.3791 </r>
       <r>    11.1440     1.8710    39.8361 </r>
       <r>    11.3882     1.9923    40.3227 </r>
       <r>    11.6325     1.6171    40.7176 </r>
       <r>    11.8767     3.8360    41.6545 </r>
       <r>    12.1209     4.6831    42.7983 </r>
       <r>    12.3652     2.9434    43.5172 </r>
       <r>    12.6094     2.4278    44.1101 </r>
       <r>    12.8536     1.9915    44.5965 </r>
       <r>    13.0979     1.9915    45.0829 </r>
       <r>    13.3421     1.5472    45.4607 </r>
       <r>    13.5863     2.3626    46.0378 </r>
       <r>    13.8306     2.4118    46.6268 </r>
       <r>    14.0748     2.2768    47.1829 </r>
       <r>    14.3190     1.4600    47.5395 </r>
       <r>    14.5633     1.0745    47.8019 </r>
       <r>    14.8075     0.5807    47.9437 </r>
       <r>    15.0517     0.1117    47.9710 </r>
       <r>    15.2960     0.1186    48.0000 </r>
       <r>    15.5402     0.0000    48.0000 </r>
       <r>    15.7844     0.0000    48.0000 </r>
       <r>    16.0287     0.0000    48.0000 </r>
       <r>    16.2729     0.0000    48.0000 </r>
       <r>    16.5171     0.0000    48.0000 </r>
       <r>    16.7614     0.0000    48.0000 </r>
       <r>    17.0056     0.0000    48.0000 </r>
       <r>    17.2498     0.0000    48.0000 </r>
       <r>    17.4941     0.0000    48.0000 </r>
       <r>    17.7383     0.0000    48.0000 </r>
       <r>    17.9825     0.0000    48.0000 </r>
       <r>    18.2268     0.0000    48.0000 </r>
       <r>    18.4710     0.0000    48.0000 </r>
      </set>
     </set>
    </array>
   </total>
  </dos>
 </calculation>
 <structure name="finalpos" >
  <crystal>
   <varray name="basis" >
    <v>       3.97266230       0.00000000       0.00000000 </v>
    <v>       0.00000000       3.97266230       0.00000000 </v>
    <v>       0.00000000       0.00000000       7.70727713 </v>
   </varray>
   <i name="volume">    121.63660027 </i>
   <varray name="rec_basis" >
    <v>       0.25172036       0.00000000       0.00000000 </v>
    <v>       0.00000000       0.25172036       0.00000000 </v>
    <v>       0.00000000       0.00000000       0.12974751 </v>
   </varray>
  </crystal>
  <varray name="positions" >
   <v>       0.50000000       0.50000000       0.75000000 </v>
   <v>       0.50000000       0.50000000       0.25000000 </v>
   <v>       0.50000000       0.00000000       0.50000000 </v>
   <v>       0.00000000       0.50000000       0.00000000 </v>
   <v>       0.50000000       0.00000000       0.00000000 </v>
   <v>       0.00000000       0.50000000       0.50000000 </v>
   <v>       0.00000000       0.00000000       0.75000000 </v>
   <v>       0.00000000       0.00000000       0.25000000 </v>
   <v>       0.50000000       0.50000000       0.00000000 </v>
   <v>       0.50000000       0.50000000       0.50000000 </v>
  </varray>
 </structure>
</modeling>
