 108 108   0   0
  0.1367340E+02  0.1151037E-08  0.1132740E-08  0.1132740E-08  0.5000000E-15
  1.000000000000000E-004
  CAR 
 unknown system                          
     17.82523034    -54.65950003  301      5.29141238      1.00000000
    -54.660  0.0000E+00  0.0000E+00  0.0000E+00  0.0000E+00
    -54.418  0.0000E+00  0.0000E+00  0.0000E+00  0.0000E+00
    -54.176  0.0000E+00  0.0000E+00  0.0000E+00  0.0000E+00
    -53.935  0.0000E+00  0.0000E+00  0.0000E+00  0.0000E+00
    -53.693  0.0000E+00  0.0000E+00  0.0000E+00  0.0000E+00
    -53.451  0.0000E+00  0.0000E+00  0.0000E+00  0.0000E+00
    -53.210  0.0000E+00  0.0000E+00  0.0000E+00  0.0000E+00
    -52.968  0.0000E+00  0.0000E+00  0.0000E+00  0.0000E+00
    -52.727  0.0000E+00  0.0000E+00  0.0000E+00  0.0000E+00
    -52.485  0.0000E+00  0.0000E+00  0.0000E+00  0.0000E+00
    -52.243  0.0000E+00  0.0000E+00  0.0000E+00  0.0000E+00
    -52.002  0.0000E+00  0.0000E+00  0.0000E+00  0.0000E+00
    -51.760  0.0000E+00  0.0000E+00  0.0000E+00  0.0000E+00
    -51.518  0.3084E-03  0.0000E+00  0.7451E-04  0.0000E+00
    -51.277  0.9827E+02  0.0000E+00  0.2374E+02  0.0000E+00
    -51.035  0.4275E+02  0.0000E+00  0.3407E+02  0.0000E+00
    -50.794  0.7974E+01  0.0000E+00  0.3600E+02  0.0000E+00
    -50.552  0.0000E+00  0.0000E+00  0.3600E+02  0.0000E+00
    -50.310  0.1451E-03  0.0000E+00  0.3600E+02  0.0000E+00
    -50.069  0.9774E+02  0.0000E+00  0.5962E+02  0.0000E+00
    -49.827  0.4896E+02  0.0000E+00  0.7145E+02  0.0000E+00
    -49.586  0.1246E+03  0.0000E+00  0.1016E+03  0.0000E+00
    -49.344  0.2666E+02  0.0000E+00  0.1080E+03  0.0000E+00
    -49.102  0.0000E+00  0.0000E+00  0.1080E+03  0.0000E+00
    -48.861  0.0000E+00  0.0000E+00  0.1080E+03  0.0000E+00
    -48.619  0.0000E+00  0.0000E+00  0.1080E+03  0.0000E+00
    -48.377  0.0000E+00  0.0000E+00  0.1080E+03  0.0000E+00
    -48.136  0.0000E+00  0.0000E+00  0.1080E+03  0.0000E+00
    -47.894  0.0000E+00  0.0000E+00  0.1080E+03  0.0000E+00
    -47.653  0.0000E+00  0.0000E+00  0.1080E+03  0.0000E+00
    -47.411  0.0000E+00  0.0000E+00  0.1080E+03  0.0000E+00
    -47.169  0.0000E+00  0.0000E+00  0.1080E+03  0.0000E+00
    -46.928  0.0000E+00  0.0000E+00  0.1080E+03  0.0000E+00
    -46.686  0.0000E+00  0.1244E+01  0.1080E+03  0.3006E+00
    -46.445  0.0000E+00  0.9811E+02  0.1080E+03  0.2401E+02
    -46.203  0.0000E+00  0.1742E+03  0.1080E+03  0.6609E+02
    -45.961  0.0000E+00  0.8417E+02  0.1080E+03  0.8642E+02
    -45.720  0.0000E+00  0.8929E+02  0.1080E+03  0.1080E+03
    -45.478  0.0000E+00  0.4737E-03  0.1080E+03  0.1080E+03
    -45.236  0.0000E+00  0.0000E+00  0.1080E+03  0.1080E+03
    -44.995  0.0000E+00  0.0000E+00  0.1080E+03  0.1080E+03
    -44.753  0.0000E+00  0.0000E+00  0.1080E+03  0.1080E+03
    -44.512  0.0000E+00  0.0000E+00  0.1080E+03  0.1080E+03
    -44.270  0.0000E+00  0.0000E+00  0.1080E+03  0.1080E+03
    -44.028  0.0000E+00  0.0000E+00  0.1080E+03  0.1080E+03
    -43.787  0.0000E+00  0.0000E+00  0.1080E+03  0.1080E+03
    -43.545  0.0000E+00  0.0000E+00  0.1080E+03  0.1080E+03
    -43.304  0.0000E+00  0.0000E+00  0.1080E+03  0.1080E+03
    -43.062  0.0000E+00  0.0000E+00  0.1080E+03  0.1080E+03
    -42.820  0.0000E+00  0.0000E+00  0.1080E+03  0.1080E+03
    -42.579  0.0000E+00  0.0000E+00  0.1080E+03  0.1080E+03
    -42.337  0.0000E+00  0.0000E+00  0.1080E+03  0.1080E+03
    -42.095  0.0000E+00  0.0000E+00  0.1080E+03  0.1080E+03
    -41.854  0.0000E+00  0.0000E+00  0.1080E+03  0.1080E+03
    -41.612  0.0000E+00  0.0000E+00  0.1080E+03  0.1080E+03
    -41.371  0.0000E+00  0.0000E+00  0.1080E+03  0.1080E+03
    -41.129  0.0000E+00  0.0000E+00  0.1080E+03  0.1080E+03
    -40.887  0.0000E+00  0.0000E+00  0.1080E+03  0.1080E+03
    -40.646  0.0000E+00  0.0000E+00  0.1080E+03  0.1080E+03
    -40.404  0.3244E-12  0.6315E-12  0.1080E+03  0.1080E+03
    -40.163  0.1604E+02  0.1818E+02  0.1119E+03  0.1124E+03
    -39.921  0.8329E+02  0.8115E+02  0.1320E+03  0.1320E+03
    -39.679  0.0000E+00  0.0000E+00  0.1320E+03  0.1320E+03
    -39.438  0.0000E+00  0.0000E+00  0.1320E+03  0.1320E+03
    -39.196  0.0000E+00  0.0000E+00  0.1320E+03  0.1320E+03
    -38.954  0.0000E+00  0.0000E+00  0.1320E+03  0.1320E+03
    -38.713  0.0000E+00  0.0000E+00  0.1320E+03  0.1320E+03
    -38.471  0.0000E+00  0.0000E+00  0.1320E+03  0.1320E+03
    -38.230  0.0000E+00  0.0000E+00  0.1320E+03  0.1320E+03
    -37.988  0.0000E+00  0.0000E+00  0.1320E+03  0.1320E+03
    -37.746  0.0000E+00  0.0000E+00  0.1320E+03  0.1320E+03
    -37.505  0.0000E+00  0.0000E+00  0.1320E+03  0.1320E+03
    -37.263  0.0000E+00  0.0000E+00  0.1320E+03  0.1320E+03
    -37.022  0.0000E+00  0.0000E+00  0.1320E+03  0.1320E+03
    -36.780  0.0000E+00  0.0000E+00  0.1320E+03  0.1320E+03
    -36.538  0.0000E+00  0.0000E+00  0.1320E+03  0.1320E+03
    -36.297  0.0000E+00  0.0000E+00  0.1320E+03  0.1320E+03
    -36.055  0.0000E+00  0.0000E+00  0.1320E+03  0.1320E+03
    -35.813  0.0000E+00  0.0000E+00  0.1320E+03  0.1320E+03
    -35.572  0.0000E+00  0.0000E+00  0.1320E+03  0.1320E+03
    -35.330  0.0000E+00  0.0000E+00  0.1320E+03  0.1320E+03
    -35.089  0.0000E+00  0.0000E+00  0.1320E+03  0.1320E+03
    -34.847  0.0000E+00  0.0000E+00  0.1320E+03  0.1320E+03
    -34.605  0.0000E+00  0.0000E+00  0.1320E+03  0.1320E+03
    -34.364  0.0000E+00  0.0000E+00  0.1320E+03  0.1320E+03
    -34.122  0.0000E+00  0.0000E+00  0.1320E+03  0.1320E+03
    -33.881  0.0000E+00  0.0000E+00  0.1320E+03  0.1320E+03
    -33.639  0.0000E+00  0.0000E+00  0.1320E+03  0.1320E+03
    -33.397  0.0000E+00  0.0000E+00  0.1320E+03  0.1320E+03
    -33.156  0.0000E+00  0.0000E+00  0.1320E+03  0.1320E+03
    -32.914  0.0000E+00  0.0000E+00  0.1320E+03  0.1320E+03
    -32.672  0.0000E+00  0.0000E+00  0.1320E+03  0.1320E+03
    -32.431  0.0000E+00  0.0000E+00  0.1320E+03  0.1320E+03
    -32.189  0.0000E+00  0.0000E+00  0.1320E+03  0.1320E+03
    -31.948  0.0000E+00  0.0000E+00  0.1320E+03  0.1320E+03
    -31.706  0.0000E+00  0.0000E+00  0.1320E+03  0.1320E+03
    -31.464  0.0000E+00  0.0000E+00  0.1320E+03  0.1320E+03
    -31.223  0.0000E+00  0.0000E+00  0.1320E+03  0.1320E+03
    -30.981  0.0000E+00  0.0000E+00  0.1320E+03  0.1320E+03
    -30.740  0.0000E+00  0.0000E+00  0.1320E+03  0.1320E+03
    -30.498  0.0000E+00  0.0000E+00  0.1320E+03  0.1320E+03
    -30.256  0.0000E+00  0.0000E+00  0.1320E+03  0.1320E+03
    -30.015  0.0000E+00  0.0000E+00  0.1320E+03  0.1320E+03
    -29.773  0.0000E+00  0.0000E+00  0.1320E+03  0.1320E+03
    -29.531  0.0000E+00  0.0000E+00  0.1320E+03  0.1320E+03
    -29.290  0.0000E+00  0.0000E+00  0.1320E+03  0.1320E+03
    -29.048  0.0000E+00  0.0000E+00  0.1320E+03  0.1320E+03
    -28.807  0.0000E+00  0.0000E+00  0.1320E+03  0.1320E+03
    -28.565  0.0000E+00  0.0000E+00  0.1320E+03  0.1320E+03
    -28.323  0.0000E+00  0.0000E+00  0.1320E+03  0.1320E+03
    -28.082  0.0000E+00  0.0000E+00  0.1320E+03  0.1320E+03
    -27.840  0.0000E+00  0.0000E+00  0.1320E+03  0.1320E+03
    -27.599  0.0000E+00  0.0000E+00  0.1320E+03  0.1320E+03
    -27.357  0.0000E+00  0.0000E+00  0.1320E+03  0.1320E+03
    -27.115  0.0000E+00  0.0000E+00  0.1320E+03  0.1320E+03
    -26.874  0.0000E+00  0.0000E+00  0.1320E+03  0.1320E+03
    -26.632  0.0000E+00  0.0000E+00  0.1320E+03  0.1320E+03
    -26.390  0.0000E+00  0.0000E+00  0.1320E+03  0.1320E+03
    -26.149  0.0000E+00  0.0000E+00  0.1320E+03  0.1320E+03
    -25.907  0.0000E+00  0.0000E+00  0.1320E+03  0.1320E+03
    -25.666  0.0000E+00  0.0000E+00  0.1320E+03  0.1320E+03
    -25.424  0.0000E+00  0.0000E+00  0.1320E+03  0.1320E+03
    -25.182  0.0000E+00  0.0000E+00  0.1320E+03  0.1320E+03
    -24.941  0.0000E+00  0.0000E+00  0.1320E+03  0.1320E+03
    -24.699  0.0000E+00  0.0000E+00  0.1320E+03  0.1320E+03
    -24.458  0.0000E+00  0.0000E+00  0.1320E+03  0.1320E+03
    -24.216  0.0000E+00  0.0000E+00  0.1320E+03  0.1320E+03
    -23.974  0.0000E+00  0.0000E+00  0.1320E+03  0.1320E+03
    -23.733  0.0000E+00  0.0000E+00  0.1320E+03  0.1320E+03
    -23.491  0.0000E+00  0.0000E+00  0.1320E+03  0.1320E+03
    -23.249  0.0000E+00  0.0000E+00  0.1320E+03  0.1320E+03
    -23.008  0.0000E+00  0.0000E+00  0.1320E+03  0.1320E+03
    -22.766  0.0000E+00  0.0000E+00  0.1320E+03  0.1320E+03
    -22.525  0.0000E+00  0.0000E+00  0.1320E+03  0.1320E+03
    -22.283  0.0000E+00  0.0000E+00  0.1320E+03  0.1320E+03
    -22.041  0.0000E+00  0.0000E+00  0.1320E+03  0.1320E+03
    -21.800  0.0000E+00  0.0000E+00  0.1320E+03  0.1320E+03
    -21.558  0.0000E+00  0.0000E+00  0.1320E+03  0.1320E+03
    -21.317  0.0000E+00  0.0000E+00  0.1320E+03  0.1320E+03
    -21.075  0.0000E+00  0.0000E+00  0.1320E+03  0.1320E+03
    -20.833  0.0000E+00  0.0000E+00  0.1320E+03  0.1320E+03
    -20.592  0.0000E+00  0.0000E+00  0.1320E+03  0.1320E+03
    -20.350  0.0000E+00  0.0000E+00  0.1320E+03  0.1320E+03
    -20.108  0.0000E+00  0.0000E+00  0.1320E+03  0.1320E+03
    -19.867  0.0000E+00  0.0000E+00  0.1320E+03  0.1320E+03
    -19.625  0.0000E+00  0.0000E+00  0.1320E+03  0.1320E+03
    -19.384  0.0000E+00  0.0000E+00  0.1320E+03  0.1320E+03
    -19.142  0.0000E+00  0.0000E+00  0.1320E+03  0.1320E+03
    -18.900  0.0000E+00  0.0000E+00  0.1320E+03  0.1320E+03
    -18.659  0.0000E+00  0.0000E+00  0.1320E+03  0.1320E+03
    -18.417  0.0000E+00  0.0000E+00  0.1320E+03  0.1320E+03
    -18.176  0.0000E+00  0.0000E+00  0.1320E+03  0.1320E+03
    -17.934  0.0000E+00  0.0000E+00  0.1320E+03  0.1320E+03
    -17.692  0.0000E+00  0.0000E+00  0.1320E+03  0.1320E+03
    -17.451  0.0000E+00  0.0000E+00  0.1320E+03  0.1320E+03
    -17.209  0.0000E+00  0.0000E+00  0.1320E+03  0.1320E+03
    -16.967  0.0000E+00  0.0000E+00  0.1320E+03  0.1320E+03
    -16.726  0.0000E+00  0.0000E+00  0.1320E+03  0.1320E+03
    -16.484  0.0000E+00  0.0000E+00  0.1320E+03  0.1320E+03
    -16.243  0.0000E+00  0.0000E+00  0.1320E+03  0.1320E+03
    -16.001  0.0000E+00  0.0000E+00  0.1320E+03  0.1320E+03
    -15.759  0.0000E+00  0.0000E+00  0.1320E+03  0.1320E+03
    -15.518  0.0000E+00  0.0000E+00  0.1320E+03  0.1320E+03
    -15.276  0.0000E+00  0.0000E+00  0.1320E+03  0.1320E+03
    -15.035  0.0000E+00  0.0000E+00  0.1320E+03  0.1320E+03
    -14.793  0.0000E+00  0.0000E+00  0.1320E+03  0.1320E+03
    -14.551  0.0000E+00  0.0000E+00  0.1320E+03  0.1320E+03
    -14.310  0.0000E+00  0.0000E+00  0.1320E+03  0.1320E+03
    -14.068  0.0000E+00  0.0000E+00  0.1320E+03  0.1320E+03
    -13.826  0.1433E-11  0.0000E+00  0.1320E+03  0.1320E+03
    -13.585  0.2322E+01  0.0000E+00  0.1326E+03  0.1320E+03
    -13.343  0.5768E+02  0.1662E-05  0.1465E+03  0.1320E+03
    -13.102  0.3918E+02  0.1898E+02  0.1560E+03  0.1366E+03
    -12.860  0.1479E+00  0.7615E+02  0.1560E+03  0.1550E+03
    -12.618  0.0000E+00  0.4199E+01  0.1560E+03  0.1560E+03
    -12.377  0.0000E+00  0.0000E+00  0.1560E+03  0.1560E+03
    -12.135  0.0000E+00  0.0000E+00  0.1560E+03  0.1560E+03
    -11.894  0.0000E+00  0.0000E+00  0.1560E+03  0.1560E+03
    -11.652  0.0000E+00  0.0000E+00  0.1560E+03  0.1560E+03
    -11.410  0.0000E+00  0.0000E+00  0.1560E+03  0.1560E+03
    -11.169  0.0000E+00  0.0000E+00  0.1560E+03  0.1560E+03
    -10.927  0.0000E+00  0.0000E+00  0.1560E+03  0.1560E+03
    -10.685  0.0000E+00  0.0000E+00  0.1560E+03  0.1560E+03
    -10.444  0.0000E+00  0.0000E+00  0.1560E+03  0.1560E+03
    -10.202  0.0000E+00  0.0000E+00  0.1560E+03  0.1560E+03
     -9.961  0.0000E+00  0.0000E+00  0.1560E+03  0.1560E+03
     -9.719  0.0000E+00  0.0000E+00  0.1560E+03  0.1560E+03
     -9.477  0.0000E+00  0.0000E+00  0.1560E+03  0.1560E+03
     -9.236  0.0000E+00  0.0000E+00  0.1560E+03  0.1560E+03
     -8.994  0.0000E+00  0.0000E+00  0.1560E+03  0.1560E+03
     -8.753  0.0000E+00  0.0000E+00  0.1560E+03  0.1560E+03
     -8.511  0.0000E+00  0.0000E+00  0.1560E+03  0.1560E+03
     -8.269  0.0000E+00  0.0000E+00  0.1560E+03  0.1560E+03
     -8.028  0.0000E+00  0.0000E+00  0.1560E+03  0.1560E+03
     -7.786  0.3046E-13  0.0000E+00  0.1560E+03  0.1560E+03
     -7.544  0.2192E+00  0.4255E-16  0.1561E+03  0.1560E+03
     -7.303  0.2234E+02  0.6576E-01  0.1615E+03  0.1560E+03
     -7.061  0.4717E+02  0.2447E+02  0.1728E+03  0.1619E+03
     -6.820  0.2935E+02  0.4656E+02  0.1799E+03  0.1732E+03
     -6.578  0.2490E+00  0.2674E+02  0.1800E+03  0.1796E+03
     -6.336  0.0000E+00  0.1505E+01  0.1800E+03  0.1800E+03
     -6.095  0.0000E+00  0.0000E+00  0.1800E+03  0.1800E+03
     -5.853  0.0000E+00  0.0000E+00  0.1800E+03  0.1800E+03
     -5.611  0.0000E+00  0.0000E+00  0.1800E+03  0.1800E+03
     -5.370  0.0000E+00  0.0000E+00  0.1800E+03  0.1800E+03
     -5.128  0.0000E+00  0.0000E+00  0.1800E+03  0.1800E+03
     -4.887  0.0000E+00  0.0000E+00  0.1800E+03  0.1800E+03
     -4.645  0.0000E+00  0.0000E+00  0.1800E+03  0.1800E+03
     -4.403  0.0000E+00  0.0000E+00  0.1800E+03  0.1800E+03
     -4.162  0.0000E+00  0.0000E+00  0.1800E+03  0.1800E+03
     -3.920  0.0000E+00  0.0000E+00  0.1800E+03  0.1800E+03
     -3.679  0.0000E+00  0.0000E+00  0.1800E+03  0.1800E+03
     -3.437  0.0000E+00  0.0000E+00  0.1800E+03  0.1800E+03
     -3.195  0.0000E+00  0.0000E+00  0.1800E+03  0.1800E+03
     -2.954  0.0000E+00  0.0000E+00  0.1800E+03  0.1800E+03
     -2.712  0.0000E+00  0.0000E+00  0.1800E+03  0.1800E+03
     -2.470  0.0000E+00  0.0000E+00  0.1800E+03  0.1800E+03
     -2.229  0.1454E-01  0.0000E+00  0.1800E+03  0.1800E+03
     -1.987  0.2723E+02  0.0000E+00  0.1866E+03  0.1800E+03
     -1.746  0.5013E+02  0.0000E+00  0.1987E+03  0.1800E+03
     -1.504  0.1583E+02  0.0000E+00  0.2025E+03  0.1800E+03
     -1.262  0.1903E+02  0.0000E+00  0.2071E+03  0.1800E+03
     -1.021  0.5912E+02  0.1582E-03  0.2214E+03  0.1800E+03
     -0.779  0.7329E+02  0.1907E+01  0.2391E+03  0.1805E+03
     -0.538  0.6481E+02  0.1001E+02  0.2548E+03  0.1829E+03
     -0.296  0.6331E+02  0.2039E+02  0.2701E+03  0.1878E+03
     -0.054  0.6206E+02  0.3414E+02  0.2851E+03  0.1961E+03
      0.187  0.5481E+02  0.2516E+02  0.2983E+03  0.2021E+03
      0.429  0.1067E+03  0.3705E+02  0.3241E+03  0.2111E+03
      0.671  0.5269E+02  0.3617E+02  0.3368E+03  0.2198E+03
      0.912  0.4681E+02  0.5714E+02  0.3481E+03  0.2336E+03
      1.154  0.5301E+02  0.5593E+02  0.3609E+03  0.2471E+03
      1.395  0.6427E+02  0.1980E+02  0.3764E+03  0.2519E+03
      1.637  0.5397E+02  0.2523E+02  0.3895E+03  0.2580E+03
      1.879  0.5844E+02  0.4735E+02  0.4036E+03  0.2695E+03
      2.120  0.4838E+02  0.3570E+02  0.4153E+03  0.2781E+03
      2.362  0.2753E+02  0.3020E+02  0.4220E+03  0.2854E+03
      2.603  0.3530E+02  0.3337E+02  0.4305E+03  0.2935E+03
      2.845  0.3374E+02  0.4465E+02  0.4386E+03  0.3042E+03
      3.087  0.3661E+02  0.3815E+02  0.4475E+03  0.3135E+03
      3.328  0.3371E+02  0.5965E+02  0.4556E+03  0.3279E+03
      3.570  0.2572E+02  0.2784E+02  0.4618E+03  0.3346E+03
      3.812  0.4118E+02  0.9327E+01  0.4718E+03  0.3369E+03
      4.053  0.4594E+02  0.1088E+02  0.4829E+03  0.3395E+03
      4.295  0.3576E+02  0.4075E+02  0.4915E+03  0.3493E+03
      4.536  0.3623E+02  0.2273E+02  0.5003E+03  0.3548E+03
      4.778  0.1538E+02  0.1988E+02  0.5040E+03  0.3596E+03
      5.020  0.1241E-01  0.1573E+01  0.5040E+03  0.3600E+03
      5.261  0.0000E+00  0.1793E-04  0.5040E+03  0.3600E+03
      5.503  0.0000E+00  0.0000E+00  0.5040E+03  0.3600E+03
      5.744  0.0000E+00  0.0000E+00  0.5040E+03  0.3600E+03
      5.986  0.0000E+00  0.2327E-07  0.5040E+03  0.3600E+03
      6.228  0.0000E+00  0.3166E+00  0.5040E+03  0.3601E+03
      6.469  0.0000E+00  0.3690E+01  0.5040E+03  0.3610E+03
      6.711  0.4766E-02  0.9777E+01  0.5040E+03  0.3633E+03
      6.953  0.1485E+00  0.3279E+02  0.5040E+03  0.3713E+03
      7.194  0.3177E+00  0.7777E+02  0.5041E+03  0.3900E+03
      7.436  0.7580E+00  0.6506E+02  0.5043E+03  0.4058E+03
      7.677  0.2534E+01  0.5149E+02  0.5049E+03  0.4182E+03
      7.919  0.2214E+01  0.8562E+02  0.5054E+03  0.4389E+03
      8.161  0.2120E+01  0.7822E+02  0.5060E+03  0.4578E+03
      8.402  0.5336E+01  0.5285E+02  0.5072E+03  0.4706E+03
      8.644  0.7905E+01  0.7298E+02  0.5092E+03  0.4882E+03
      8.885  0.1656E+02  0.4497E+02  0.5132E+03  0.4991E+03
      9.127  0.1346E+02  0.2209E+02  0.5164E+03  0.5044E+03
      9.369  0.1857E+02  0.4822E+01  0.5209E+03  0.5056E+03
      9.610  0.1984E+02  0.6666E+01  0.5257E+03  0.5072E+03
      9.852  0.1784E+02  0.1156E+02  0.5300E+03  0.5100E+03
     10.094  0.1804E+02  0.1444E+02  0.5344E+03  0.5135E+03
     10.335  0.1975E+02  0.1815E+02  0.5391E+03  0.5178E+03
     10.577  0.2424E+02  0.3198E+02  0.5450E+03  0.5256E+03
     10.818  0.2130E+02  0.2822E+02  0.5501E+03  0.5324E+03
     11.060  0.2852E+02  0.2188E+02  0.5570E+03  0.5377E+03
     11.302  0.2875E+02  0.2488E+02  0.5640E+03  0.5437E+03
     11.543  0.2223E+02  0.2207E+02  0.5693E+03  0.5490E+03
     11.785  0.2727E+02  0.2151E+02  0.5759E+03  0.5542E+03
     12.026  0.3936E+02  0.1857E+02  0.5854E+03  0.5587E+03
     12.268  0.3435E+02  0.3072E+02  0.5937E+03  0.5661E+03
     12.510  0.2812E+02  0.4268E+02  0.6005E+03  0.5764E+03
     12.751  0.2540E+02  0.3526E+02  0.6067E+03  0.5850E+03
     12.993  0.2859E+02  0.2856E+02  0.6136E+03  0.5919E+03
     13.235  0.2531E+02  0.2742E+02  0.6197E+03  0.5985E+03
     13.476  0.2168E+02  0.3659E+02  0.6249E+03  0.6073E+03
     13.718  0.1786E+02  0.2944E+02  0.6293E+03  0.6144E+03
     13.959  0.2929E+01  0.2309E+02  0.6300E+03  0.6200E+03
     14.201  0.1705E+00  0.2361E+02  0.6300E+03  0.6257E+03
     14.443  0.0000E+00  0.1638E+02  0.6300E+03  0.6297E+03
     14.684  0.0000E+00  0.1328E+01  0.6300E+03  0.6300E+03
     14.926  0.0000E+00  0.2098E-05  0.6300E+03  0.6300E+03
     15.167  0.0000E+00  0.0000E+00  0.6300E+03  0.6300E+03
     15.409  0.0000E+00  0.0000E+00  0.6300E+03  0.6300E+03
     15.651  0.0000E+00  0.0000E+00  0.6300E+03  0.6300E+03
     15.892  0.0000E+00  0.0000E+00  0.6300E+03  0.6300E+03
     16.134  0.0000E+00  0.0000E+00  0.6300E+03  0.6300E+03
     16.376  0.0000E+00  0.0000E+00  0.6300E+03  0.6300E+03
     16.617  0.0000E+00  0.0000E+00  0.6300E+03  0.6300E+03
     16.859  0.0000E+00  0.0000E+00  0.6300E+03  0.6300E+03
     17.100  0.0000E+00  0.0000E+00  0.6300E+03  0.6300E+03
     17.342  0.0000E+00  0.0000E+00  0.6300E+03  0.6300E+03
     17.584  0.0000E+00  0.0000E+00  0.6300E+03  0.6300E+03
     17.825  0.0000E+00  0.0000E+00  0.6300E+03  0.6300E+03
