  88  88   0   0
  0.1431748E+02  0.1111223E-08  0.1111745E-08  0.1056954E-08  0.5000000E-15
  1.000000000000000E-004
  CAR 
 unknown system                          
     17.91328073    -54.34809014  301      5.20732302      1.00000000
    -54.348  0.0000E+00  0.0000E+00  0.0000E+00  0.0000E+00
    -54.107  0.0000E+00  0.0000E+00  0.0000E+00  0.0000E+00
    -53.866  0.0000E+00  0.0000E+00  0.0000E+00  0.0000E+00
    -53.625  0.0000E+00  0.0000E+00  0.0000E+00  0.0000E+00
    -53.385  0.0000E+00  0.0000E+00  0.0000E+00  0.0000E+00
    -53.144  0.0000E+00  0.0000E+00  0.0000E+00  0.0000E+00
    -52.903  0.0000E+00  0.0000E+00  0.0000E+00  0.0000E+00
    -52.662  0.0000E+00  0.0000E+00  0.0000E+00  0.0000E+00
    -52.421  0.0000E+00  0.0000E+00  0.0000E+00  0.0000E+00
    -52.180  0.0000E+00  0.0000E+00  0.0000E+00  0.0000E+00
    -51.939  0.0000E+00  0.0000E+00  0.0000E+00  0.0000E+00
    -51.699  0.0000E+00  0.0000E+00  0.0000E+00  0.0000E+00
    -51.458  0.0000E+00  0.0000E+00  0.0000E+00  0.0000E+00
    -51.217  0.1744E-03  0.0000E+00  0.4201E-04  0.0000E+00
    -50.976  0.1298E+03  0.0000E+00  0.3126E+02  0.0000E+00
    -50.735  0.3087E+01  0.0000E+00  0.3200E+02  0.0000E+00
    -50.494  0.0000E+00  0.0000E+00  0.3200E+02  0.0000E+00
    -50.253  0.0000E+00  0.0000E+00  0.3200E+02  0.0000E+00
    -50.012  0.0000E+00  0.0000E+00  0.3200E+02  0.0000E+00
    -49.772  0.1219E+01  0.0000E+00  0.3229E+02  0.0000E+00
    -49.531  0.2298E+03  0.0000E+00  0.8765E+02  0.0000E+00
    -49.290  0.3469E+02  0.0000E+00  0.9600E+02  0.0000E+00
    -49.049  0.0000E+00  0.0000E+00  0.9600E+02  0.0000E+00
    -48.808  0.0000E+00  0.0000E+00  0.9600E+02  0.0000E+00
    -48.567  0.0000E+00  0.0000E+00  0.9600E+02  0.0000E+00
    -48.326  0.0000E+00  0.0000E+00  0.9600E+02  0.0000E+00
    -48.085  0.0000E+00  0.0000E+00  0.9600E+02  0.0000E+00
    -47.845  0.0000E+00  0.0000E+00  0.9600E+02  0.0000E+00
    -47.604  0.0000E+00  0.0000E+00  0.9600E+02  0.0000E+00
    -47.363  0.0000E+00  0.0000E+00  0.9600E+02  0.0000E+00
    -47.122  0.0000E+00  0.0000E+00  0.9600E+02  0.0000E+00
    -46.881  0.0000E+00  0.0000E+00  0.9600E+02  0.0000E+00
    -46.640  0.0000E+00  0.0000E+00  0.9600E+02  0.0000E+00
    -46.399  0.0000E+00  0.2464E+00  0.9600E+02  0.5935E-01
    -46.158  0.0000E+00  0.1325E+03  0.9600E+02  0.3198E+02
    -45.918  0.0000E+00  0.5322E+02  0.9600E+02  0.4480E+02
    -45.677  0.0000E+00  0.2126E+03  0.9600E+02  0.9600E+02
    -45.436  0.0000E+00  0.1003E-03  0.9600E+02  0.9600E+02
    -45.195  0.0000E+00  0.0000E+00  0.9600E+02  0.9600E+02
    -44.954  0.0000E+00  0.0000E+00  0.9600E+02  0.9600E+02
    -44.713  0.0000E+00  0.0000E+00  0.9600E+02  0.9600E+02
    -44.472  0.0000E+00  0.0000E+00  0.9600E+02  0.9600E+02
    -44.231  0.0000E+00  0.0000E+00  0.9600E+02  0.9600E+02
    -43.991  0.0000E+00  0.0000E+00  0.9600E+02  0.9600E+02
    -43.750  0.0000E+00  0.0000E+00  0.9600E+02  0.9600E+02
    -43.509  0.0000E+00  0.0000E+00  0.9600E+02  0.9600E+02
    -43.268  0.0000E+00  0.0000E+00  0.9600E+02  0.9600E+02
    -43.027  0.0000E+00  0.0000E+00  0.9600E+02  0.9600E+02
    -42.786  0.0000E+00  0.0000E+00  0.9600E+02  0.9600E+02
    -42.545  0.0000E+00  0.0000E+00  0.9600E+02  0.9600E+02
    -42.305  0.0000E+00  0.0000E+00  0.9600E+02  0.9600E+02
    -42.064  0.0000E+00  0.0000E+00  0.9600E+02  0.9600E+02
    -41.823  0.0000E+00  0.0000E+00  0.9600E+02  0.9600E+02
    -41.582  0.0000E+00  0.0000E+00  0.9600E+02  0.9600E+02
    -41.341  0.0000E+00  0.0000E+00  0.9600E+02  0.9600E+02
    -41.100  0.0000E+00  0.0000E+00  0.9600E+02  0.9600E+02
    -40.859  0.0000E+00  0.0000E+00  0.9600E+02  0.9600E+02
    -40.618  0.0000E+00  0.0000E+00  0.9600E+02  0.9600E+02
    -40.378  0.0000E+00  0.0000E+00  0.9600E+02  0.9600E+02
    -40.137  0.4455E-12  0.2806E-12  0.9600E+02  0.9600E+02
    -39.896  0.1233E+02  0.1131E+02  0.9897E+02  0.9872E+02
    -39.655  0.5410E+02  0.5512E+02  0.1120E+03  0.1120E+03
    -39.414  0.0000E+00  0.0000E+00  0.1120E+03  0.1120E+03
    -39.173  0.0000E+00  0.0000E+00  0.1120E+03  0.1120E+03
    -38.932  0.0000E+00  0.0000E+00  0.1120E+03  0.1120E+03
    -38.691  0.0000E+00  0.0000E+00  0.1120E+03  0.1120E+03
    -38.451  0.0000E+00  0.0000E+00  0.1120E+03  0.1120E+03
    -38.210  0.0000E+00  0.0000E+00  0.1120E+03  0.1120E+03
    -37.969  0.0000E+00  0.0000E+00  0.1120E+03  0.1120E+03
    -37.728  0.0000E+00  0.0000E+00  0.1120E+03  0.1120E+03
    -37.487  0.0000E+00  0.0000E+00  0.1120E+03  0.1120E+03
    -37.246  0.0000E+00  0.0000E+00  0.1120E+03  0.1120E+03
    -37.005  0.0000E+00  0.0000E+00  0.1120E+03  0.1120E+03
    -36.764  0.0000E+00  0.0000E+00  0.1120E+03  0.1120E+03
    -36.524  0.0000E+00  0.0000E+00  0.1120E+03  0.1120E+03
    -36.283  0.0000E+00  0.0000E+00  0.1120E+03  0.1120E+03
    -36.042  0.0000E+00  0.0000E+00  0.1120E+03  0.1120E+03
    -35.801  0.0000E+00  0.0000E+00  0.1120E+03  0.1120E+03
    -35.560  0.0000E+00  0.0000E+00  0.1120E+03  0.1120E+03
    -35.319  0.0000E+00  0.0000E+00  0.1120E+03  0.1120E+03
    -35.078  0.0000E+00  0.0000E+00  0.1120E+03  0.1120E+03
    -34.838  0.0000E+00  0.0000E+00  0.1120E+03  0.1120E+03
    -34.597  0.0000E+00  0.0000E+00  0.1120E+03  0.1120E+03
    -34.356  0.0000E+00  0.0000E+00  0.1120E+03  0.1120E+03
    -34.115  0.0000E+00  0.0000E+00  0.1120E+03  0.1120E+03
    -33.874  0.0000E+00  0.0000E+00  0.1120E+03  0.1120E+03
    -33.633  0.0000E+00  0.0000E+00  0.1120E+03  0.1120E+03
    -33.392  0.0000E+00  0.0000E+00  0.1120E+03  0.1120E+03
    -33.151  0.0000E+00  0.0000E+00  0.1120E+03  0.1120E+03
    -32.911  0.0000E+00  0.0000E+00  0.1120E+03  0.1120E+03
    -32.670  0.0000E+00  0.0000E+00  0.1120E+03  0.1120E+03
    -32.429  0.0000E+00  0.0000E+00  0.1120E+03  0.1120E+03
    -32.188  0.0000E+00  0.0000E+00  0.1120E+03  0.1120E+03
    -31.947  0.0000E+00  0.0000E+00  0.1120E+03  0.1120E+03
    -31.706  0.0000E+00  0.0000E+00  0.1120E+03  0.1120E+03
    -31.465  0.0000E+00  0.0000E+00  0.1120E+03  0.1120E+03
    -31.224  0.0000E+00  0.0000E+00  0.1120E+03  0.1120E+03
    -30.984  0.0000E+00  0.0000E+00  0.1120E+03  0.1120E+03
    -30.743  0.0000E+00  0.0000E+00  0.1120E+03  0.1120E+03
    -30.502  0.0000E+00  0.0000E+00  0.1120E+03  0.1120E+03
    -30.261  0.0000E+00  0.0000E+00  0.1120E+03  0.1120E+03
    -30.020  0.0000E+00  0.0000E+00  0.1120E+03  0.1120E+03
    -29.779  0.0000E+00  0.0000E+00  0.1120E+03  0.1120E+03
    -29.538  0.0000E+00  0.0000E+00  0.1120E+03  0.1120E+03
    -29.297  0.0000E+00  0.0000E+00  0.1120E+03  0.1120E+03
    -29.057  0.0000E+00  0.0000E+00  0.1120E+03  0.1120E+03
    -28.816  0.0000E+00  0.0000E+00  0.1120E+03  0.1120E+03
    -28.575  0.0000E+00  0.0000E+00  0.1120E+03  0.1120E+03
    -28.334  0.0000E+00  0.0000E+00  0.1120E+03  0.1120E+03
    -28.093  0.0000E+00  0.0000E+00  0.1120E+03  0.1120E+03
    -27.852  0.0000E+00  0.0000E+00  0.1120E+03  0.1120E+03
    -27.611  0.0000E+00  0.0000E+00  0.1120E+03  0.1120E+03
    -27.371  0.0000E+00  0.0000E+00  0.1120E+03  0.1120E+03
    -27.130  0.0000E+00  0.0000E+00  0.1120E+03  0.1120E+03
    -26.889  0.0000E+00  0.0000E+00  0.1120E+03  0.1120E+03
    -26.648  0.0000E+00  0.0000E+00  0.1120E+03  0.1120E+03
    -26.407  0.0000E+00  0.0000E+00  0.1120E+03  0.1120E+03
    -26.166  0.0000E+00  0.0000E+00  0.1120E+03  0.1120E+03
    -25.925  0.0000E+00  0.0000E+00  0.1120E+03  0.1120E+03
    -25.684  0.0000E+00  0.0000E+00  0.1120E+03  0.1120E+03
    -25.444  0.0000E+00  0.0000E+00  0.1120E+03  0.1120E+03
    -25.203  0.0000E+00  0.0000E+00  0.1120E+03  0.1120E+03
    -24.962  0.0000E+00  0.0000E+00  0.1120E+03  0.1120E+03
    -24.721  0.0000E+00  0.0000E+00  0.1120E+03  0.1120E+03
    -24.480  0.0000E+00  0.0000E+00  0.1120E+03  0.1120E+03
    -24.239  0.0000E+00  0.0000E+00  0.1120E+03  0.1120E+03
    -23.998  0.0000E+00  0.0000E+00  0.1120E+03  0.1120E+03
    -23.757  0.0000E+00  0.0000E+00  0.1120E+03  0.1120E+03
    -23.517  0.0000E+00  0.0000E+00  0.1120E+03  0.1120E+03
    -23.276  0.0000E+00  0.0000E+00  0.1120E+03  0.1120E+03
    -23.035  0.0000E+00  0.0000E+00  0.1120E+03  0.1120E+03
    -22.794  0.0000E+00  0.0000E+00  0.1120E+03  0.1120E+03
    -22.553  0.0000E+00  0.0000E+00  0.1120E+03  0.1120E+03
    -22.312  0.0000E+00  0.0000E+00  0.1120E+03  0.1120E+03
    -22.071  0.0000E+00  0.0000E+00  0.1120E+03  0.1120E+03
    -21.830  0.0000E+00  0.0000E+00  0.1120E+03  0.1120E+03
    -21.590  0.0000E+00  0.0000E+00  0.1120E+03  0.1120E+03
    -21.349  0.0000E+00  0.0000E+00  0.1120E+03  0.1120E+03
    -21.108  0.0000E+00  0.0000E+00  0.1120E+03  0.1120E+03
    -20.867  0.0000E+00  0.0000E+00  0.1120E+03  0.1120E+03
    -20.626  0.0000E+00  0.0000E+00  0.1120E+03  0.1120E+03
    -20.385  0.0000E+00  0.0000E+00  0.1120E+03  0.1120E+03
    -20.144  0.0000E+00  0.0000E+00  0.1120E+03  0.1120E+03
    -19.904  0.0000E+00  0.0000E+00  0.1120E+03  0.1120E+03
    -19.663  0.0000E+00  0.0000E+00  0.1120E+03  0.1120E+03
    -19.422  0.0000E+00  0.0000E+00  0.1120E+03  0.1120E+03
    -19.181  0.0000E+00  0.0000E+00  0.1120E+03  0.1120E+03
    -18.940  0.0000E+00  0.0000E+00  0.1120E+03  0.1120E+03
    -18.699  0.0000E+00  0.0000E+00  0.1120E+03  0.1120E+03
    -18.458  0.0000E+00  0.0000E+00  0.1120E+03  0.1120E+03
    -18.217  0.0000E+00  0.0000E+00  0.1120E+03  0.1120E+03
    -17.977  0.0000E+00  0.0000E+00  0.1120E+03  0.1120E+03
    -17.736  0.0000E+00  0.0000E+00  0.1120E+03  0.1120E+03
    -17.495  0.0000E+00  0.0000E+00  0.1120E+03  0.1120E+03
    -17.254  0.0000E+00  0.0000E+00  0.1120E+03  0.1120E+03
    -17.013  0.0000E+00  0.0000E+00  0.1120E+03  0.1120E+03
    -16.772  0.0000E+00  0.0000E+00  0.1120E+03  0.1120E+03
    -16.531  0.0000E+00  0.0000E+00  0.1120E+03  0.1120E+03
    -16.290  0.0000E+00  0.0000E+00  0.1120E+03  0.1120E+03
    -16.050  0.0000E+00  0.0000E+00  0.1120E+03  0.1120E+03
    -15.809  0.0000E+00  0.0000E+00  0.1120E+03  0.1120E+03
    -15.568  0.0000E+00  0.0000E+00  0.1120E+03  0.1120E+03
    -15.327  0.0000E+00  0.0000E+00  0.1120E+03  0.1120E+03
    -15.086  0.0000E+00  0.0000E+00  0.1120E+03  0.1120E+03
    -14.845  0.0000E+00  0.0000E+00  0.1120E+03  0.1120E+03
    -14.604  0.0000E+00  0.0000E+00  0.1120E+03  0.1120E+03
    -14.363  0.0000E+00  0.0000E+00  0.1120E+03  0.1120E+03
    -14.123  0.0000E+00  0.0000E+00  0.1120E+03  0.1120E+03
    -13.882  0.0000E+00  0.0000E+00  0.1120E+03  0.1120E+03
    -13.641  0.0000E+00  0.0000E+00  0.1120E+03  0.1120E+03
    -13.400  0.7030E-06  0.0000E+00  0.1120E+03  0.1120E+03
    -13.159  0.1917E+02  0.0000E+00  0.1166E+03  0.1120E+03
    -12.918  0.4591E+02  0.8397E-02  0.1277E+03  0.1120E+03
    -12.677  0.1343E+01  0.4257E+02  0.1280E+03  0.1223E+03
    -12.436  0.0000E+00  0.2385E+02  0.1280E+03  0.1280E+03
    -12.196  0.0000E+00  0.0000E+00  0.1280E+03  0.1280E+03
    -11.955  0.0000E+00  0.0000E+00  0.1280E+03  0.1280E+03
    -11.714  0.0000E+00  0.0000E+00  0.1280E+03  0.1280E+03
    -11.473  0.0000E+00  0.0000E+00  0.1280E+03  0.1280E+03
    -11.232  0.0000E+00  0.0000E+00  0.1280E+03  0.1280E+03
    -10.991  0.0000E+00  0.0000E+00  0.1280E+03  0.1280E+03
    -10.750  0.0000E+00  0.0000E+00  0.1280E+03  0.1280E+03
    -10.510  0.0000E+00  0.0000E+00  0.1280E+03  0.1280E+03
    -10.269  0.0000E+00  0.0000E+00  0.1280E+03  0.1280E+03
    -10.028  0.0000E+00  0.0000E+00  0.1280E+03  0.1280E+03
     -9.787  0.0000E+00  0.0000E+00  0.1280E+03  0.1280E+03
     -9.546  0.0000E+00  0.0000E+00  0.1280E+03  0.1280E+03
     -9.305  0.0000E+00  0.0000E+00  0.1280E+03  0.1280E+03
     -9.064  0.0000E+00  0.0000E+00  0.1280E+03  0.1280E+03
     -8.823  0.0000E+00  0.0000E+00  0.1280E+03  0.1280E+03
     -8.583  0.0000E+00  0.0000E+00  0.1280E+03  0.1280E+03
     -8.342  0.0000E+00  0.0000E+00  0.1280E+03  0.1280E+03
     -8.101  0.0000E+00  0.0000E+00  0.1280E+03  0.1280E+03
     -7.860  0.9868E-10  0.0000E+00  0.1280E+03  0.1280E+03
     -7.619  0.6053E+00  0.1824E-10  0.1281E+03  0.1280E+03
     -7.378  0.1273E+02  0.5378E+00  0.1312E+03  0.1281E+03
     -7.137  0.3027E+02  0.1400E+02  0.1385E+03  0.1315E+03
     -6.896  0.3446E+02  0.2946E+02  0.1468E+03  0.1386E+03
     -6.656  0.2157E+02  0.2647E+02  0.1520E+03  0.1450E+03
     -6.415  0.1693E-04  0.2912E+02  0.1520E+03  0.1520E+03
     -6.174  0.0000E+00  0.4784E-01  0.1520E+03  0.1520E+03
     -5.933  0.0000E+00  0.0000E+00  0.1520E+03  0.1520E+03
     -5.692  0.0000E+00  0.0000E+00  0.1520E+03  0.1520E+03
     -5.451  0.0000E+00  0.0000E+00  0.1520E+03  0.1520E+03
     -5.210  0.0000E+00  0.0000E+00  0.1520E+03  0.1520E+03
     -4.969  0.0000E+00  0.0000E+00  0.1520E+03  0.1520E+03
     -4.729  0.0000E+00  0.0000E+00  0.1520E+03  0.1520E+03
     -4.488  0.0000E+00  0.0000E+00  0.1520E+03  0.1520E+03
     -4.247  0.0000E+00  0.0000E+00  0.1520E+03  0.1520E+03
     -4.006  0.0000E+00  0.0000E+00  0.1520E+03  0.1520E+03
     -3.765  0.0000E+00  0.0000E+00  0.1520E+03  0.1520E+03
     -3.524  0.0000E+00  0.0000E+00  0.1520E+03  0.1520E+03
     -3.283  0.0000E+00  0.0000E+00  0.1520E+03  0.1520E+03
     -3.043  0.0000E+00  0.0000E+00  0.1520E+03  0.1520E+03
     -2.802  0.0000E+00  0.0000E+00  0.1520E+03  0.1520E+03
     -2.561  0.0000E+00  0.0000E+00  0.1520E+03  0.1520E+03
     -2.320  0.0000E+00  0.0000E+00  0.1520E+03  0.1520E+03
     -2.079  0.3373E-04  0.0000E+00  0.1520E+03  0.1520E+03
     -1.838  0.1627E+02  0.0000E+00  0.1559E+03  0.1520E+03
     -1.597  0.1945E+02  0.0000E+00  0.1606E+03  0.1520E+03
     -1.356  0.1472E+02  0.0000E+00  0.1641E+03  0.1520E+03
     -1.116  0.1722E+02  0.0000E+00  0.1683E+03  0.1520E+03
     -0.875  0.4625E+02  0.0000E+00  0.1794E+03  0.1520E+03
     -0.634  0.5911E+02  0.1339E-05  0.1937E+03  0.1520E+03
     -0.393  0.3869E+02  0.4378E+01  0.2030E+03  0.1531E+03
     -0.152  0.6823E+02  0.2034E+02  0.2194E+03  0.1580E+03
      0.089  0.7357E+02  0.1225E+02  0.2372E+03  0.1609E+03
      0.330  0.7760E+02  0.1869E+02  0.2558E+03  0.1654E+03
      0.571  0.7010E+02  0.2963E+02  0.2727E+03  0.1725E+03
      0.811  0.5497E+02  0.3930E+02  0.2860E+03  0.1820E+03
      1.052  0.3629E+02  0.3729E+02  0.2947E+03  0.1910E+03
      1.293  0.3070E+02  0.3100E+02  0.3021E+03  0.1985E+03
      1.534  0.4503E+02  0.2079E+02  0.3130E+03  0.2035E+03
      1.775  0.4264E+02  0.2884E+02  0.3232E+03  0.2104E+03
      2.016  0.6912E+02  0.3716E+02  0.3399E+03  0.2194E+03
      2.257  0.5712E+02  0.2730E+02  0.3536E+03  0.2259E+03
      2.498  0.2695E+02  0.2706E+02  0.3601E+03  0.2325E+03
      2.738  0.4275E+02  0.3111E+02  0.3704E+03  0.2400E+03
      2.979  0.2963E+02  0.4452E+02  0.3776E+03  0.2507E+03
      3.220  0.8710E+01  0.4550E+02  0.3797E+03  0.2616E+03
      3.461  0.2832E+02  0.3167E+02  0.3865E+03  0.2693E+03
      3.702  0.2697E+02  0.1224E+02  0.3930E+03  0.2722E+03
      3.943  0.3108E+02  0.1811E+02  0.4005E+03  0.2766E+03
      4.184  0.3590E+02  0.5226E+02  0.4091E+03  0.2892E+03
      4.424  0.3641E+02  0.4526E+02  0.4179E+03  0.3001E+03
      4.665  0.3012E+02  0.1633E+02  0.4251E+03  0.3040E+03
      4.906  0.2567E+02  0.3553E-02  0.4313E+03  0.3040E+03
      5.147  0.2858E+01  0.0000E+00  0.4320E+03  0.3040E+03
      5.388  0.0000E+00  0.0000E+00  0.4320E+03  0.3040E+03
      5.629  0.0000E+00  0.0000E+00  0.4320E+03  0.3040E+03
      5.870  0.0000E+00  0.0000E+00  0.4320E+03  0.3040E+03
      6.111  0.0000E+00  0.7939E-09  0.4320E+03  0.3040E+03
      6.351  0.0000E+00  0.4273E+00  0.4320E+03  0.3041E+03
      6.592  0.0000E+00  0.4210E+01  0.4320E+03  0.3051E+03
      6.833  0.0000E+00  0.7991E+01  0.4320E+03  0.3070E+03
      7.074  0.2023E-14  0.1973E+02  0.4320E+03  0.3118E+03
      7.315  0.3247E-01  0.4446E+02  0.4320E+03  0.3225E+03
      7.556  0.1213E+00  0.5374E+02  0.4320E+03  0.3354E+03
      7.797  0.2765E+00  0.6306E+02  0.4321E+03  0.3506E+03
      8.038  0.7131E+00  0.6621E+02  0.4323E+03  0.3666E+03
      8.278  0.2215E+01  0.7040E+02  0.4328E+03  0.3835E+03
      8.519  0.2663E+01  0.5863E+02  0.4335E+03  0.3977E+03
      8.760  0.8958E+01  0.5887E+02  0.4356E+03  0.4118E+03
      9.001  0.1260E+02  0.4732E+02  0.4386E+03  0.4232E+03
      9.242  0.1313E+02  0.2939E+02  0.4418E+03  0.4303E+03
      9.483  0.1814E+02  0.8678E+01  0.4462E+03  0.4324E+03
      9.724  0.1612E+02  0.3140E+01  0.4501E+03  0.4332E+03
      9.965  0.1575E+02  0.8445E+01  0.4539E+03  0.4352E+03
     10.205  0.2248E+02  0.1880E+02  0.4593E+03  0.4397E+03
     10.446  0.1489E+02  0.1796E+02  0.4629E+03  0.4441E+03
     10.687  0.1522E+02  0.1728E+02  0.4665E+03  0.4482E+03
     10.928  0.1331E+02  0.2754E+02  0.4697E+03  0.4548E+03
     11.169  0.2068E+02  0.1900E+02  0.4747E+03  0.4594E+03
     11.410  0.2500E+02  0.2404E+02  0.4807E+03  0.4652E+03
     11.651  0.2702E+02  0.1454E+02  0.4872E+03  0.4687E+03
     11.891  0.2490E+02  0.1387E+02  0.4932E+03  0.4721E+03
     12.132  0.3321E+02  0.1627E+02  0.5012E+03  0.4760E+03
     12.373  0.1983E+02  0.3717E+02  0.5060E+03  0.4849E+03
     12.614  0.2309E+02  0.3244E+02  0.5116E+03  0.4927E+03
     12.855  0.2148E+02  0.2947E+02  0.5167E+03  0.4998E+03
     13.096  0.2006E+02  0.2020E+02  0.5216E+03  0.5047E+03
     13.337  0.2428E+02  0.2244E+02  0.5274E+03  0.5101E+03
     13.578  0.2397E+02  0.2725E+02  0.5332E+03  0.5167E+03
     13.818  0.1339E+02  0.2369E+02  0.5364E+03  0.5224E+03
     14.059  0.6530E+01  0.2617E+02  0.5380E+03  0.5287E+03
     14.300  0.1284E-02  0.1915E+02  0.5380E+03  0.5333E+03
     14.541  0.0000E+00  0.1653E+02  0.5380E+03  0.5373E+03
     14.782  0.0000E+00  0.2961E+01  0.5380E+03  0.5380E+03
     15.023  0.0000E+00  0.2237E-05  0.5380E+03  0.5380E+03
     15.264  0.0000E+00  0.0000E+00  0.5380E+03  0.5380E+03
     15.505  0.0000E+00  0.0000E+00  0.5380E+03  0.5380E+03
     15.745  0.0000E+00  0.0000E+00  0.5380E+03  0.5380E+03
     15.986  0.0000E+00  0.0000E+00  0.5380E+03  0.5380E+03
     16.227  0.0000E+00  0.0000E+00  0.5380E+03  0.5380E+03
     16.468  0.0000E+00  0.0000E+00  0.5380E+03  0.5380E+03
     16.709  0.0000E+00  0.0000E+00  0.5380E+03  0.5380E+03
     16.950  0.0000E+00  0.0000E+00  0.5380E+03  0.5380E+03
     17.191  0.0000E+00  0.0000E+00  0.5380E+03  0.5380E+03
     17.432  0.0000E+00  0.0000E+00  0.5380E+03  0.5380E+03
     17.672  0.0000E+00  0.0000E+00  0.5380E+03  0.5380E+03
     17.913  0.0000E+00  0.0000E+00  0.5380E+03  0.5380E+03
