  88  88   0   0
  0.1431748E+02  0.1111223E-08  0.1111745E-08  0.1056954E-08  0.5000000E-15
  1.000000000000000E-004
  CAR 
 unknown system                          
     17.90540371    -54.34434333  301      5.20148986      1.00000000
    -54.344  0.0000E+00  0.0000E+00  0.0000E+00  0.0000E+00
    -54.104  0.0000E+00  0.0000E+00  0.0000E+00  0.0000E+00
    -53.863  0.0000E+00  0.0000E+00  0.0000E+00  0.0000E+00
    -53.622  0.0000E+00  0.0000E+00  0.0000E+00  0.0000E+00
    -53.381  0.0000E+00  0.0000E+00  0.0000E+00  0.0000E+00
    -53.140  0.0000E+00  0.0000E+00  0.0000E+00  0.0000E+00
    -52.899  0.0000E+00  0.0000E+00  0.0000E+00  0.0000E+00
    -52.659  0.0000E+00  0.0000E+00  0.0000E+00  0.0000E+00
    -52.418  0.0000E+00  0.0000E+00  0.0000E+00  0.0000E+00
    -52.177  0.0000E+00  0.0000E+00  0.0000E+00  0.0000E+00
    -51.936  0.0000E+00  0.0000E+00  0.0000E+00  0.0000E+00
    -51.695  0.0000E+00  0.0000E+00  0.0000E+00  0.0000E+00
    -51.454  0.0000E+00  0.0000E+00  0.0000E+00  0.0000E+00
    -51.214  0.2454E-03  0.0000E+00  0.5911E-04  0.0000E+00
    -50.973  0.1304E+03  0.0000E+00  0.3140E+02  0.0000E+00
    -50.732  0.2478E+01  0.0000E+00  0.3200E+02  0.0000E+00
    -50.491  0.0000E+00  0.0000E+00  0.3200E+02  0.0000E+00
    -50.250  0.0000E+00  0.0000E+00  0.3200E+02  0.0000E+00
    -50.009  0.0000E+00  0.0000E+00  0.3200E+02  0.0000E+00
    -49.769  0.1549E+01  0.0000E+00  0.3237E+02  0.0000E+00
    -49.528  0.2331E+03  0.0000E+00  0.8850E+02  0.0000E+00
    -49.287  0.3112E+02  0.0000E+00  0.9600E+02  0.0000E+00
    -49.046  0.0000E+00  0.0000E+00  0.9600E+02  0.0000E+00
    -48.805  0.0000E+00  0.0000E+00  0.9600E+02  0.0000E+00
    -48.564  0.0000E+00  0.0000E+00  0.9600E+02  0.0000E+00
    -48.324  0.0000E+00  0.0000E+00  0.9600E+02  0.0000E+00
    -48.083  0.0000E+00  0.0000E+00  0.9600E+02  0.0000E+00
    -47.842  0.0000E+00  0.0000E+00  0.9600E+02  0.0000E+00
    -47.601  0.0000E+00  0.0000E+00  0.9600E+02  0.0000E+00
    -47.360  0.0000E+00  0.0000E+00  0.9600E+02  0.0000E+00
    -47.119  0.0000E+00  0.0000E+00  0.9600E+02  0.0000E+00
    -46.879  0.0000E+00  0.0000E+00  0.9600E+02  0.0000E+00
    -46.638  0.0000E+00  0.0000E+00  0.9600E+02  0.0000E+00
    -46.397  0.0000E+00  0.2860E+00  0.9600E+02  0.6888E-01
    -46.156  0.0000E+00  0.1325E+03  0.9600E+02  0.3199E+02
    -45.915  0.0000E+00  0.5620E+02  0.9600E+02  0.4552E+02
    -45.674  0.0000E+00  0.2096E+03  0.9600E+02  0.9600E+02
    -45.434  0.0000E+00  0.0000E+00  0.9600E+02  0.9600E+02
    -45.193  0.0000E+00  0.0000E+00  0.9600E+02  0.9600E+02
    -44.952  0.0000E+00  0.0000E+00  0.9600E+02  0.9600E+02
    -44.711  0.0000E+00  0.0000E+00  0.9600E+02  0.9600E+02
    -44.470  0.0000E+00  0.0000E+00  0.9600E+02  0.9600E+02
    -44.229  0.0000E+00  0.0000E+00  0.9600E+02  0.9600E+02
    -43.989  0.0000E+00  0.0000E+00  0.9600E+02  0.9600E+02
    -43.748  0.0000E+00  0.0000E+00  0.9600E+02  0.9600E+02
    -43.507  0.0000E+00  0.0000E+00  0.9600E+02  0.9600E+02
    -43.266  0.0000E+00  0.0000E+00  0.9600E+02  0.9600E+02
    -43.025  0.0000E+00  0.0000E+00  0.9600E+02  0.9600E+02
    -42.784  0.0000E+00  0.0000E+00  0.9600E+02  0.9600E+02
    -42.544  0.0000E+00  0.0000E+00  0.9600E+02  0.9600E+02
    -42.303  0.0000E+00  0.0000E+00  0.9600E+02  0.9600E+02
    -42.062  0.0000E+00  0.0000E+00  0.9600E+02  0.9600E+02
    -41.821  0.0000E+00  0.0000E+00  0.9600E+02  0.9600E+02
    -41.580  0.0000E+00  0.0000E+00  0.9600E+02  0.9600E+02
    -41.339  0.0000E+00  0.0000E+00  0.9600E+02  0.9600E+02
    -41.099  0.0000E+00  0.0000E+00  0.9600E+02  0.9600E+02
    -40.858  0.0000E+00  0.0000E+00  0.9600E+02  0.9600E+02
    -40.617  0.0000E+00  0.0000E+00  0.9600E+02  0.9600E+02
    -40.376  0.0000E+00  0.0000E+00  0.9600E+02  0.9600E+02
    -40.135  0.7173E-12  0.4534E-12  0.9600E+02  0.9600E+02
    -39.894  0.1346E+02  0.1238E+02  0.9924E+02  0.9898E+02
    -39.654  0.5298E+02  0.5406E+02  0.1120E+03  0.1120E+03
    -39.413  0.0000E+00  0.0000E+00  0.1120E+03  0.1120E+03
    -39.172  0.0000E+00  0.0000E+00  0.1120E+03  0.1120E+03
    -38.931  0.0000E+00  0.0000E+00  0.1120E+03  0.1120E+03
    -38.690  0.0000E+00  0.0000E+00  0.1120E+03  0.1120E+03
    -38.449  0.0000E+00  0.0000E+00  0.1120E+03  0.1120E+03
    -38.209  0.0000E+00  0.0000E+00  0.1120E+03  0.1120E+03
    -37.968  0.0000E+00  0.0000E+00  0.1120E+03  0.1120E+03
    -37.727  0.0000E+00  0.0000E+00  0.1120E+03  0.1120E+03
    -37.486  0.0000E+00  0.0000E+00  0.1120E+03  0.1120E+03
    -37.245  0.0000E+00  0.0000E+00  0.1120E+03  0.1120E+03
    -37.004  0.0000E+00  0.0000E+00  0.1120E+03  0.1120E+03
    -36.764  0.0000E+00  0.0000E+00  0.1120E+03  0.1120E+03
    -36.523  0.0000E+00  0.0000E+00  0.1120E+03  0.1120E+03
    -36.282  0.0000E+00  0.0000E+00  0.1120E+03  0.1120E+03
    -36.041  0.0000E+00  0.0000E+00  0.1120E+03  0.1120E+03
    -35.800  0.0000E+00  0.0000E+00  0.1120E+03  0.1120E+03
    -35.559  0.0000E+00  0.0000E+00  0.1120E+03  0.1120E+03
    -35.319  0.0000E+00  0.0000E+00  0.1120E+03  0.1120E+03
    -35.078  0.0000E+00  0.0000E+00  0.1120E+03  0.1120E+03
    -34.837  0.0000E+00  0.0000E+00  0.1120E+03  0.1120E+03
    -34.596  0.0000E+00  0.0000E+00  0.1120E+03  0.1120E+03
    -34.355  0.0000E+00  0.0000E+00  0.1120E+03  0.1120E+03
    -34.114  0.0000E+00  0.0000E+00  0.1120E+03  0.1120E+03
    -33.874  0.0000E+00  0.0000E+00  0.1120E+03  0.1120E+03
    -33.633  0.0000E+00  0.0000E+00  0.1120E+03  0.1120E+03
    -33.392  0.0000E+00  0.0000E+00  0.1120E+03  0.1120E+03
    -33.151  0.0000E+00  0.0000E+00  0.1120E+03  0.1120E+03
    -32.910  0.0000E+00  0.0000E+00  0.1120E+03  0.1120E+03
    -32.669  0.0000E+00  0.0000E+00  0.1120E+03  0.1120E+03
    -32.429  0.0000E+00  0.0000E+00  0.1120E+03  0.1120E+03
    -32.188  0.0000E+00  0.0000E+00  0.1120E+03  0.1120E+03
    -31.947  0.0000E+00  0.0000E+00  0.1120E+03  0.1120E+03
    -31.706  0.0000E+00  0.0000E+00  0.1120E+03  0.1120E+03
    -31.465  0.0000E+00  0.0000E+00  0.1120E+03  0.1120E+03
    -31.224  0.0000E+00  0.0000E+00  0.1120E+03  0.1120E+03
    -30.984  0.0000E+00  0.0000E+00  0.1120E+03  0.1120E+03
    -30.743  0.0000E+00  0.0000E+00  0.1120E+03  0.1120E+03
    -30.502  0.0000E+00  0.0000E+00  0.1120E+03  0.1120E+03
    -30.261  0.0000E+00  0.0000E+00  0.1120E+03  0.1120E+03
    -30.020  0.0000E+00  0.0000E+00  0.1120E+03  0.1120E+03
    -29.779  0.0000E+00  0.0000E+00  0.1120E+03  0.1120E+03
    -29.539  0.0000E+00  0.0000E+00  0.1120E+03  0.1120E+03
    -29.298  0.0000E+00  0.0000E+00  0.1120E+03  0.1120E+03
    -29.057  0.0000E+00  0.0000E+00  0.1120E+03  0.1120E+03
    -28.816  0.0000E+00  0.0000E+00  0.1120E+03  0.1120E+03
    -28.575  0.0000E+00  0.0000E+00  0.1120E+03  0.1120E+03
    -28.334  0.0000E+00  0.0000E+00  0.1120E+03  0.1120E+03
    -28.094  0.0000E+00  0.0000E+00  0.1120E+03  0.1120E+03
    -27.853  0.0000E+00  0.0000E+00  0.1120E+03  0.1120E+03
    -27.612  0.0000E+00  0.0000E+00  0.1120E+03  0.1120E+03
    -27.371  0.0000E+00  0.0000E+00  0.1120E+03  0.1120E+03
    -27.130  0.0000E+00  0.0000E+00  0.1120E+03  0.1120E+03
    -26.889  0.0000E+00  0.0000E+00  0.1120E+03  0.1120E+03
    -26.649  0.0000E+00  0.0000E+00  0.1120E+03  0.1120E+03
    -26.408  0.0000E+00  0.0000E+00  0.1120E+03  0.1120E+03
    -26.167  0.0000E+00  0.0000E+00  0.1120E+03  0.1120E+03
    -25.926  0.0000E+00  0.0000E+00  0.1120E+03  0.1120E+03
    -25.685  0.0000E+00  0.0000E+00  0.1120E+03  0.1120E+03
    -25.444  0.0000E+00  0.0000E+00  0.1120E+03  0.1120E+03
    -25.204  0.0000E+00  0.0000E+00  0.1120E+03  0.1120E+03
    -24.963  0.0000E+00  0.0000E+00  0.1120E+03  0.1120E+03
    -24.722  0.0000E+00  0.0000E+00  0.1120E+03  0.1120E+03
    -24.481  0.0000E+00  0.0000E+00  0.1120E+03  0.1120E+03
    -24.240  0.0000E+00  0.0000E+00  0.1120E+03  0.1120E+03
    -23.999  0.0000E+00  0.0000E+00  0.1120E+03  0.1120E+03
    -23.759  0.0000E+00  0.0000E+00  0.1120E+03  0.1120E+03
    -23.518  0.0000E+00  0.0000E+00  0.1120E+03  0.1120E+03
    -23.277  0.0000E+00  0.0000E+00  0.1120E+03  0.1120E+03
    -23.036  0.0000E+00  0.0000E+00  0.1120E+03  0.1120E+03
    -22.795  0.0000E+00  0.0000E+00  0.1120E+03  0.1120E+03
    -22.554  0.0000E+00  0.0000E+00  0.1120E+03  0.1120E+03
    -22.314  0.0000E+00  0.0000E+00  0.1120E+03  0.1120E+03
    -22.073  0.0000E+00  0.0000E+00  0.1120E+03  0.1120E+03
    -21.832  0.0000E+00  0.0000E+00  0.1120E+03  0.1120E+03
    -21.591  0.0000E+00  0.0000E+00  0.1120E+03  0.1120E+03
    -21.350  0.0000E+00  0.0000E+00  0.1120E+03  0.1120E+03
    -21.109  0.0000E+00  0.0000E+00  0.1120E+03  0.1120E+03
    -20.869  0.0000E+00  0.0000E+00  0.1120E+03  0.1120E+03
    -20.628  0.0000E+00  0.0000E+00  0.1120E+03  0.1120E+03
    -20.387  0.0000E+00  0.0000E+00  0.1120E+03  0.1120E+03
    -20.146  0.0000E+00  0.0000E+00  0.1120E+03  0.1120E+03
    -19.905  0.0000E+00  0.0000E+00  0.1120E+03  0.1120E+03
    -19.664  0.0000E+00  0.0000E+00  0.1120E+03  0.1120E+03
    -19.424  0.0000E+00  0.0000E+00  0.1120E+03  0.1120E+03
    -19.183  0.0000E+00  0.0000E+00  0.1120E+03  0.1120E+03
    -18.942  0.0000E+00  0.0000E+00  0.1120E+03  0.1120E+03
    -18.701  0.0000E+00  0.0000E+00  0.1120E+03  0.1120E+03
    -18.460  0.0000E+00  0.0000E+00  0.1120E+03  0.1120E+03
    -18.219  0.0000E+00  0.0000E+00  0.1120E+03  0.1120E+03
    -17.979  0.0000E+00  0.0000E+00  0.1120E+03  0.1120E+03
    -17.738  0.0000E+00  0.0000E+00  0.1120E+03  0.1120E+03
    -17.497  0.0000E+00  0.0000E+00  0.1120E+03  0.1120E+03
    -17.256  0.0000E+00  0.0000E+00  0.1120E+03  0.1120E+03
    -17.015  0.0000E+00  0.0000E+00  0.1120E+03  0.1120E+03
    -16.774  0.0000E+00  0.0000E+00  0.1120E+03  0.1120E+03
    -16.534  0.0000E+00  0.0000E+00  0.1120E+03  0.1120E+03
    -16.293  0.0000E+00  0.0000E+00  0.1120E+03  0.1120E+03
    -16.052  0.0000E+00  0.0000E+00  0.1120E+03  0.1120E+03
    -15.811  0.0000E+00  0.0000E+00  0.1120E+03  0.1120E+03
    -15.570  0.0000E+00  0.0000E+00  0.1120E+03  0.1120E+03
    -15.329  0.0000E+00  0.0000E+00  0.1120E+03  0.1120E+03
    -15.089  0.0000E+00  0.0000E+00  0.1120E+03  0.1120E+03
    -14.848  0.0000E+00  0.0000E+00  0.1120E+03  0.1120E+03
    -14.607  0.0000E+00  0.0000E+00  0.1120E+03  0.1120E+03
    -14.366  0.0000E+00  0.0000E+00  0.1120E+03  0.1120E+03
    -14.125  0.0000E+00  0.0000E+00  0.1120E+03  0.1120E+03
    -13.884  0.0000E+00  0.0000E+00  0.1120E+03  0.1120E+03
    -13.644  0.0000E+00  0.0000E+00  0.1120E+03  0.1120E+03
    -13.403  0.4825E-06  0.0000E+00  0.1120E+03  0.1120E+03
    -13.162  0.1860E+02  0.0000E+00  0.1165E+03  0.1120E+03
    -12.921  0.4632E+02  0.6574E-02  0.1276E+03  0.1120E+03
    -12.680  0.1515E+01  0.4189E+02  0.1280E+03  0.1221E+03
    -12.439  0.0000E+00  0.2454E+02  0.1280E+03  0.1280E+03
    -12.199  0.0000E+00  0.3128E-05  0.1280E+03  0.1280E+03
    -11.958  0.0000E+00  0.0000E+00  0.1280E+03  0.1280E+03
    -11.717  0.0000E+00  0.0000E+00  0.1280E+03  0.1280E+03
    -11.476  0.0000E+00  0.0000E+00  0.1280E+03  0.1280E+03
    -11.235  0.0000E+00  0.0000E+00  0.1280E+03  0.1280E+03
    -10.994  0.0000E+00  0.0000E+00  0.1280E+03  0.1280E+03
    -10.754  0.0000E+00  0.0000E+00  0.1280E+03  0.1280E+03
    -10.513  0.0000E+00  0.0000E+00  0.1280E+03  0.1280E+03
    -10.272  0.0000E+00  0.0000E+00  0.1280E+03  0.1280E+03
    -10.031  0.0000E+00  0.0000E+00  0.1280E+03  0.1280E+03
     -9.790  0.0000E+00  0.0000E+00  0.1280E+03  0.1280E+03
     -9.550  0.0000E+00  0.0000E+00  0.1280E+03  0.1280E+03
     -9.309  0.0000E+00  0.0000E+00  0.1280E+03  0.1280E+03
     -9.068  0.0000E+00  0.0000E+00  0.1280E+03  0.1280E+03
     -8.827  0.0000E+00  0.0000E+00  0.1280E+03  0.1280E+03
     -8.586  0.0000E+00  0.0000E+00  0.1280E+03  0.1280E+03
     -8.345  0.0000E+00  0.0000E+00  0.1280E+03  0.1280E+03
     -8.105  0.0000E+00  0.0000E+00  0.1280E+03  0.1280E+03
     -7.864  0.5169E-10  0.0000E+00  0.1280E+03  0.1280E+03
     -7.623  0.5403E+00  0.9114E-11  0.1281E+03  0.1280E+03
     -7.382  0.1245E+02  0.4742E+00  0.1311E+03  0.1281E+03
     -7.141  0.3025E+02  0.1368E+02  0.1384E+03  0.1314E+03
     -6.900  0.3376E+02  0.2949E+02  0.1465E+03  0.1385E+03
     -6.660  0.2265E+02  0.2591E+02  0.1520E+03  0.1448E+03
     -6.419  0.2899E-04  0.3004E+02  0.1520E+03  0.1520E+03
     -6.178  0.0000E+00  0.6282E-01  0.1520E+03  0.1520E+03
     -5.937  0.0000E+00  0.0000E+00  0.1520E+03  0.1520E+03
     -5.696  0.0000E+00  0.0000E+00  0.1520E+03  0.1520E+03
     -5.455  0.0000E+00  0.0000E+00  0.1520E+03  0.1520E+03
     -5.215  0.0000E+00  0.0000E+00  0.1520E+03  0.1520E+03
     -4.974  0.0000E+00  0.0000E+00  0.1520E+03  0.1520E+03
     -4.733  0.0000E+00  0.0000E+00  0.1520E+03  0.1520E+03
     -4.492  0.0000E+00  0.0000E+00  0.1520E+03  0.1520E+03
     -4.251  0.0000E+00  0.0000E+00  0.1520E+03  0.1520E+03
     -4.010  0.0000E+00  0.0000E+00  0.1520E+03  0.1520E+03
     -3.770  0.0000E+00  0.0000E+00  0.1520E+03  0.1520E+03
     -3.529  0.0000E+00  0.0000E+00  0.1520E+03  0.1520E+03
     -3.288  0.0000E+00  0.0000E+00  0.1520E+03  0.1520E+03
     -3.047  0.0000E+00  0.0000E+00  0.1520E+03  0.1520E+03
     -2.806  0.0000E+00  0.0000E+00  0.1520E+03  0.1520E+03
     -2.565  0.0000E+00  0.0000E+00  0.1520E+03  0.1520E+03
     -2.325  0.0000E+00  0.0000E+00  0.1520E+03  0.1520E+03
     -2.084  0.1963E-04  0.0000E+00  0.1520E+03  0.1520E+03
     -1.843  0.1576E+02  0.0000E+00  0.1558E+03  0.1520E+03
     -1.602  0.1963E+02  0.0000E+00  0.1605E+03  0.1520E+03
     -1.361  0.1487E+02  0.0000E+00  0.1641E+03  0.1520E+03
     -1.120  0.1707E+02  0.0000E+00  0.1682E+03  0.1520E+03
     -0.880  0.4562E+02  0.0000E+00  0.1792E+03  0.1520E+03
     -0.639  0.5896E+02  0.7111E-06  0.1934E+03  0.1520E+03
     -0.398  0.3869E+02  0.4035E+01  0.2027E+03  0.1530E+03
     -0.157  0.6775E+02  0.2035E+02  0.2190E+03  0.1579E+03
      0.084  0.7382E+02  0.1224E+02  0.2368E+03  0.1608E+03
      0.325  0.7755E+02  0.1845E+02  0.2555E+03  0.1653E+03
      0.565  0.6979E+02  0.2951E+02  0.2723E+03  0.1724E+03
      0.806  0.5591E+02  0.3916E+02  0.2858E+03  0.1818E+03
      1.047  0.3644E+02  0.3732E+02  0.2945E+03  0.1908E+03
      1.288  0.3054E+02  0.3133E+02  0.3019E+03  0.1983E+03
      1.529  0.4508E+02  0.2070E+02  0.3127E+03  0.2033E+03
      1.770  0.4205E+02  0.2900E+02  0.3229E+03  0.2103E+03
      2.010  0.6880E+02  0.3677E+02  0.3394E+03  0.2192E+03
      2.251  0.5831E+02  0.2780E+02  0.3535E+03  0.2259E+03
      2.492  0.2674E+02  0.2699E+02  0.3599E+03  0.2324E+03
      2.733  0.4262E+02  0.3053E+02  0.3702E+03  0.2397E+03
      2.974  0.3043E+02  0.4430E+02  0.3775E+03  0.2504E+03
      3.215  0.8644E+01  0.4554E+02  0.3796E+03  0.2613E+03
      3.455  0.2772E+02  0.3243E+02  0.3863E+03  0.2692E+03
      3.696  0.2734E+02  0.1255E+02  0.3929E+03  0.2722E+03
      3.937  0.3085E+02  0.1751E+02  0.4003E+03  0.2764E+03
      4.178  0.3592E+02  0.5263E+02  0.4089E+03  0.2891E+03
      4.419  0.3635E+02  0.4470E+02  0.4177E+03  0.2998E+03
      4.660  0.3031E+02  0.1730E+02  0.4250E+03  0.3040E+03
      4.900  0.2583E+02  0.5812E-02  0.4312E+03  0.3040E+03
      5.141  0.3267E+01  0.0000E+00  0.4320E+03  0.3040E+03
      5.382  0.0000E+00  0.0000E+00  0.4320E+03  0.3040E+03
      5.623  0.0000E+00  0.0000E+00  0.4320E+03  0.3040E+03
      5.864  0.0000E+00  0.0000E+00  0.4320E+03  0.3040E+03
      6.105  0.0000E+00  0.2704E-09  0.4320E+03  0.3040E+03
      6.345  0.0000E+00  0.3875E+00  0.4320E+03  0.3041E+03
      6.586  0.0000E+00  0.4193E+01  0.4320E+03  0.3051E+03
      6.827  0.0000E+00  0.7825E+01  0.4320E+03  0.3070E+03
      7.068  0.4951E-15  0.1912E+02  0.4320E+03  0.3116E+03
      7.309  0.2500E-01  0.4406E+02  0.4320E+03  0.3222E+03
      7.550  0.1288E+00  0.5326E+02  0.4320E+03  0.3350E+03
      7.790  0.2368E+00  0.6338E+02  0.4321E+03  0.3503E+03
      8.031  0.7369E+00  0.6578E+02  0.4323E+03  0.3661E+03
      8.272  0.2096E+01  0.7003E+02  0.4328E+03  0.3830E+03
      8.513  0.2639E+01  0.5937E+02  0.4334E+03  0.3973E+03
      8.754  0.8876E+01  0.5864E+02  0.4355E+03  0.4114E+03
      8.995  0.1242E+02  0.4805E+02  0.4385E+03  0.4230E+03
      9.235  0.1309E+02  0.3006E+02  0.4417E+03  0.4302E+03
      9.476  0.1804E+02  0.8972E+01  0.4460E+03  0.4324E+03
      9.717  0.1630E+02  0.2991E+01  0.4500E+03  0.4331E+03
      9.958  0.1570E+02  0.8327E+01  0.4537E+03  0.4351E+03
     10.199  0.2247E+02  0.1862E+02  0.4592E+03  0.4396E+03
     10.440  0.1485E+02  0.1797E+02  0.4627E+03  0.4439E+03
     10.680  0.1535E+02  0.1715E+02  0.4664E+03  0.4481E+03
     10.921  0.1316E+02  0.2759E+02  0.4696E+03  0.4547E+03
     11.162  0.2059E+02  0.1898E+02  0.4746E+03  0.4593E+03
     11.403  0.2470E+02  0.2396E+02  0.4805E+03  0.4650E+03
     11.644  0.2731E+02  0.1490E+02  0.4871E+03  0.4686E+03
     11.885  0.2458E+02  0.1378E+02  0.4930E+03  0.4720E+03
     12.125  0.3356E+02  0.1600E+02  0.5011E+03  0.4758E+03
     12.366  0.1991E+02  0.3664E+02  0.5059E+03  0.4846E+03
     12.607  0.2304E+02  0.3269E+02  0.5114E+03  0.4925E+03
     12.848  0.2141E+02  0.2995E+02  0.5166E+03  0.4997E+03
     13.089  0.2034E+02  0.2028E+02  0.5215E+03  0.5046E+03
     13.330  0.2383E+02  0.2212E+02  0.5272E+03  0.5099E+03
     13.570  0.2435E+02  0.2723E+02  0.5331E+03  0.5165E+03
     13.811  0.1346E+02  0.2371E+02  0.5363E+03  0.5222E+03
     14.052  0.6914E+01  0.2632E+02  0.5380E+03  0.5285E+03
     14.293  0.6157E-02  0.1923E+02  0.5380E+03  0.5332E+03
     14.534  0.0000E+00  0.1676E+02  0.5380E+03  0.5372E+03
     14.775  0.0000E+00  0.3309E+01  0.5380E+03  0.5380E+03
     15.015  0.0000E+00  0.2244E-05  0.5380E+03  0.5380E+03
     15.256  0.0000E+00  0.0000E+00  0.5380E+03  0.5380E+03
     15.497  0.0000E+00  0.0000E+00  0.5380E+03  0.5380E+03
     15.738  0.0000E+00  0.0000E+00  0.5380E+03  0.5380E+03
     15.979  0.0000E+00  0.0000E+00  0.5380E+03  0.5380E+03
     16.220  0.0000E+00  0.0000E+00  0.5380E+03  0.5380E+03
     16.460  0.0000E+00  0.0000E+00  0.5380E+03  0.5380E+03
     16.701  0.0000E+00  0.0000E+00  0.5380E+03  0.5380E+03
     16.942  0.0000E+00  0.0000E+00  0.5380E+03  0.5380E+03
     17.183  0.0000E+00  0.0000E+00  0.5380E+03  0.5380E+03
     17.424  0.0000E+00  0.0000E+00  0.5380E+03  0.5380E+03
     17.665  0.0000E+00  0.0000E+00  0.5380E+03  0.5380E+03
     17.905  0.0000E+00  0.0000E+00  0.5380E+03  0.5380E+03
